* EXECUTING CHARMM SCRIPT FROM PYTHON
*  DATE:     6/12/25     17:12:43      CREATED BY USER: raheelx
*
   32
    1    1 ADE  H5T    2.15024   3.15994  -0.16460 PROA 1      0.00000
    2    1 ADE  O5'    1.98371   2.21476  -0.18705 PROA 1      0.00000
    3    1 ADE  C5'    2.67597   1.66266   0.94867 PROA 1      0.00000
    4    1 ADE  H5'    2.21185   2.05537   1.87856 PROA 1      0.00000
    5    1 ADE  H5''   3.76868   1.80650   0.80864 PROA 1      0.00000
    6    1 ADE  C4'    2.45448   0.16316   0.97517 PROA 1      0.00000
    7    1 ADE  H4'    2.90271  -0.29021   1.88504 PROA 1      0.00000
    8    1 ADE  O4'    1.02367  -0.10976   1.01670 PROA 1      0.00000
    9    1 ADE  C1'    0.81690  -0.68969   0.12959 PROA 1      0.00000
   10    1 ADE  H1'    0.78692  -1.70032   0.59009 PROA 1      0.00000
   11    1 ADE  N9    -0.49212  -0.02712  -0.12801 PROA 1      0.00000
   12    1 ADE  C5    -2.64427   0.41744  -0.19674 PROA 1      0.00000
   13    1 ADE  N7    -2.00564   1.47264  -0.82520 PROA 1      0.00000
   14    1 ADE  C8    -0.73276   1.16177  -0.75835 PROA 1      0.00000
   15    1 ADE  H8     0.07822   1.77120  -1.15712 PROA 1      0.00000
   16    1 ADE  N1    -4.18704  -0.92883   0.66402 PROA 1      0.00000
   17    1 ADE  C2    -3.13457  -1.66361   0.98042 PROA 1      0.00000
   18    1 ADE  H2    -3.52960  -2.54124   1.49210 PROA 1      0.00000
   19    1 ADE  N3    -1.98918  -1.66401   0.88790 PROA 1      0.00000
   20    1 ADE  C4    -1.72607  -0.51837   0.24041 PROA 1      0.00000
   21    1 ADE  C6    -3.97189   0.22610   0.01534 PROA 1      0.00000
   22    1 ADE  N6    -4.98677   1.02182  -0.33741 PROA 1      0.00000
   23    1 ADE  H61   -5.93012   0.74285  -0.10855 PROA 1      0.00000
   24    1 ADE  H62   -4.78680   1.88362  -0.82465 PROA 1      0.00000
   25    1 ADE  C2'    1.70555  -0.69034  -1.01618 PROA 1      0.00000
   26    1 ADE  H2''   1.57311   0.23026  -1.62387 PROA 1      0.00000
   27    1 ADE  O2'    1.62129  -1.92672  -1.71193 PROA 1      0.00000
   28    1 ADE  H2'    0.73051  -2.26322  -1.83389 PROA 1      0.00000
   29    1 ADE  C3'    2.94473  -0.61068  -0.24828 PROA 1      0.00000
   30    1 ADE  H3'    3.68216   0.02485  -0.78364 PROA 1      0.00000
   31    1 ADE  O3'    3.56039  -1.85992   0.03488 PROA 1      0.00000
   32    1 ADE  H3T    3.44574  -2.53090  -0.64205 PROA 1      0.00000
