PSF CMAP XPLOR

       2 !NTITLE
* EXECUTING CHARMM SCRIPT FROM PYTHON                                           
*  DATE:     6/12/25     17:14:10      CREATED BY USER: raheelx                 

      76 !NATOM
       1 PROA 1    ALA  CAY  CT3   -0.270000       12.0110           0
       2 PROA 1    ALA  HY1  HA3    0.900000E-01   1.00800           0
       3 PROA 1    ALA  HY2  HA3    0.900000E-01   1.00800           0
       4 PROA 1    ALA  HY3  HA3    0.900000E-01   1.00800           0
       5 PROA 1    ALA  CY   C      0.510000       12.0110           0
       6 PROA 1    ALA  OY   O     -0.510000       15.9994           0
       7 PROA 1    ALA  N    NH1   -0.470000       14.0070           0
       8 PROA 1    ALA  HN   H      0.310000       1.00800           0
       9 PROA 1    ALA  CA   CT1    0.700000E-01   12.0110           0
      10 PROA 1    ALA  HA   HB1    0.900000E-01   1.00800           0
      11 PROA 1    ALA  CB   CT3   -0.270000       12.0110           0
      12 PROA 1    ALA  HB1  HA3    0.900000E-01   1.00800           0
      13 PROA 1    ALA  HB2  HA3    0.900000E-01   1.00800           0
      14 PROA 1    ALA  HB3  HA3    0.900000E-01   1.00800           0
      15 PROA 1    ALA  C    C      0.510000       12.0110           0
      16 PROA 1    ALA  O    O     -0.510000       15.9994           0
      17 PROA 2    ALA  N    NH1   -0.470000       14.0070           0
      18 PROA 2    ALA  HN   H      0.310000       1.00800           0
      19 PROA 2    ALA  CA   CT1    0.700000E-01   12.0110           0
      20 PROA 2    ALA  HA   HB1    0.900000E-01   1.00800           0
      21 PROA 2    ALA  CB   CT3   -0.270000       12.0110           0
      22 PROA 2    ALA  HB1  HA3    0.900000E-01   1.00800           0
      23 PROA 2    ALA  HB2  HA3    0.900000E-01   1.00800           0
      24 PROA 2    ALA  HB3  HA3    0.900000E-01   1.00800           0
      25 PROA 2    ALA  C    C      0.510000       12.0110           0
      26 PROA 2    ALA  O    O     -0.510000       15.9994           0
      27 PROA 3    ARG  N    NH1   -0.470000       14.0070           0
      28 PROA 3    ARG  HN   H      0.310000       1.00800           0
      29 PROA 3    ARG  CA   CT1    0.700000E-01   12.0110           0
      30 PROA 3    ARG  HA   HB1    0.900000E-01   1.00800           0
      31 PROA 3    ARG  CB   CT2   -0.180000       12.0110           0
      32 PROA 3    ARG  HB1  HA2    0.900000E-01   1.00800           0
      33 PROA 3    ARG  HB2  HA2    0.900000E-01   1.00800           0
      34 PROA 3    ARG  CG   CT2   -0.180000       12.0110           0
      35 PROA 3    ARG  HG1  HA2    0.900000E-01   1.00800           0
      36 PROA 3    ARG  HG2  HA2    0.900000E-01   1.00800           0
      37 PROA 3    ARG  CD   CT2    0.200000       12.0110           0
      38 PROA 3    ARG  HD1  HA2    0.900000E-01   1.00800           0
      39 PROA 3    ARG  HD2  HA2    0.900000E-01   1.00800           0
      40 PROA 3    ARG  NE   NC2   -0.700000       14.0070           0
      41 PROA 3    ARG  HE   HC     0.440000       1.00800           0
      42 PROA 3    ARG  CZ   C      0.640000       12.0110           0
      43 PROA 3    ARG  NH1  NC2   -0.800000       14.0070           0
      44 PROA 3    ARG  HH11 HC     0.460000       1.00800           0
      45 PROA 3    ARG  HH12 HC     0.460000       1.00800           0
      46 PROA 3    ARG  NH2  NC2   -0.800000       14.0070           0
      47 PROA 3    ARG  HH21 HC     0.460000       1.00800           0
      48 PROA 3    ARG  HH22 HC     0.460000       1.00800           0
      49 PROA 3    ARG  C    C      0.510000       12.0110           0
      50 PROA 3    ARG  O    O     -0.510000       15.9994           0
      51 PROA 4    ALA  N    NH1   -0.470000       14.0070           0
      52 PROA 4    ALA  HN   H      0.310000       1.00800           0
      53 PROA 4    ALA  CA   CT1    0.700000E-01   12.0110           0
      54 PROA 4    ALA  HA   HB1    0.900000E-01   1.00800           0
      55 PROA 4    ALA  CB   CT3   -0.270000       12.0110           0
      56 PROA 4    ALA  HB1  HA3    0.900000E-01   1.00800           0
      57 PROA 4    ALA  HB2  HA3    0.900000E-01   1.00800           0
      58 PROA 4    ALA  HB3  HA3    0.900000E-01   1.00800           0
      59 PROA 4    ALA  C    C      0.510000       12.0110           0
      60 PROA 4    ALA  O    O     -0.510000       15.9994           0
      61 PROA 5    ALA  N    NH1   -0.470000       14.0070           0
      62 PROA 5    ALA  HN   H      0.310000       1.00800           0
      63 PROA 5    ALA  CA   CT1    0.700000E-01   12.0110           0
      64 PROA 5    ALA  HA   HB1    0.900000E-01   1.00800           0
      65 PROA 5    ALA  CB   CT3   -0.270000       12.0110           0
      66 PROA 5    ALA  HB1  HA3    0.900000E-01   1.00800           0
      67 PROA 5    ALA  HB2  HA3    0.900000E-01   1.00800           0
      68 PROA 5    ALA  HB3  HA3    0.900000E-01   1.00800           0
      69 PROA 5    ALA  C    C      0.510000       12.0110           0
      70 PROA 5    ALA  O    O     -0.510000       15.9994           0
      71 PROA 5    ALA  NT   NH1   -0.470000       14.0070           0
      72 PROA 5    ALA  HNT  H      0.310000       1.00800           0
      73 PROA 5    ALA  CAT  CT3   -0.110000       12.0110           0
      74 PROA 5    ALA  HT1  HA3    0.900000E-01   1.00800           0
      75 PROA 5    ALA  HT2  HA3    0.900000E-01   1.00800           0
      76 PROA 5    ALA  HT3  HA3    0.900000E-01   1.00800           0

      75 !NBOND: bonds
       5       1       5       7       1       2       1       3
       1       4       6       5      11       9       7       8
       7       9      15       9      15      17       9      10
      11      12      11      13      11      14      16      15
      21      19      17      18      17      19      25      19
      25      27      19      20      21      22      21      23
      21      24      26      25      31      29      34      31
      37      34      40      37      42      40      46      42
      27      28      27      29      49      29      49      51
      29      30      31      32      31      33      34      35
      34      36      37      38      37      39      40      41
      43      44      43      45      46      47      46      48
      50      49      42      43      55      53      51      52
      51      53      59      53      59      61      53      54
      55      56      55      57      55      58      60      59
      65      63      61      62      61      63      69      63
      63      64      65      66      65      67      65      68
      70      69      69      71      71      72      71      73
      73      74      73      75      73      76

     132 !NTHETA: angles
       1       5       6       1       5       7       2       1       3
       2       1       4       2       1       5       3       1       4
       3       1       5       4       1       5       5       7       8
       5       7       9       6       5       7       7       9      10
       7       9      11       7       9      15       8       7       9
       9      11      12       9      11      13       9      11      14
       9      15      16       9      15      17      10       9      11
      10       9      15      11       9      15      12      11      13
      12      11      14      13      11      14      15      17      18
      15      17      19      16      15      17      17      19      20
      17      19      21      17      19      25      18      17      19
      19      21      22      19      21      23      19      21      24
      19      25      26      19      25      27      20      19      21
      20      19      25      21      19      25      22      21      23
      22      21      24      23      21      24      25      27      28
      25      27      29      26      25      27      27      29      30
      27      29      31      27      29      49      28      27      29
      29      31      32      29      31      33      29      31      34
      29      49      50      29      49      51      30      29      31
      30      29      49      31      29      49      31      34      35
      31      34      36      31      34      37      32      31      33
      32      31      34      33      31      34      34      37      38
      34      37      39      34      37      40      35      34      36
      35      34      37      36      34      37      37      40      41
      37      40      42      38      37      39      38      37      40
      39      37      40      40      42      43      40      42      46
      41      40      42      42      43      44      42      43      45
      42      46      47      42      46      48      43      42      46
      44      43      45      47      46      48      49      51      52
      49      51      53      50      49      51      51      53      54
      51      53      55      51      53      59      52      51      53
      53      55      56      53      55      57      53      55      58
      53      59      60      53      59      61      54      53      55
      54      53      59      55      53      59      56      55      57
      56      55      58      57      55      58      59      61      62
      59      61      63      60      59      61      61      63      64
      61      63      65      61      63      69      62      61      63
      63      65      66      63      65      67      63      65      68
      63      69      70      63      69      71      64      63      65
      64      63      69      65      63      69      66      65      67
      66      65      68      67      65      68      69      71      72
      69      71      73      70      69      71      71      73      74
      71      73      75      71      73      76      72      71      73
      74      73      75      74      73      76      75      73      76

     177 !NPHI: dihedrals
       1       5       7       8       1       5       7       9
       2       1       5       6       2       1       5       7
       3       1       5       6       3       1       5       7
       4       1       5       6       4       1       5       7
       5       7       9      10       5       7       9      11
       5       7       9      15       6       5       7       8
       6       5       7       9       7       9      11      12
       7       9      11      13       7       9      11      14
       7       9      15      16       7       9      15      17
       8       7       9      10       8       7       9      11
       8       7       9      15       9      15      17      18
       9      15      17      19      10       9      11      12
      10       9      11      13      10       9      11      14
      10       9      15      16      10       9      15      17
      11       9      15      16      11       9      15      17
      12      11       9      15      13      11       9      15
      14      11       9      15      15      17      19      20
      15      17      19      21      15      17      19      25
      16      15      17      18      16      15      17      19
      17      19      21      22      17      19      21      23
      17      19      21      24      17      19      25      26
      17      19      25      27      18      17      19      20
      18      17      19      21      18      17      19      25
      19      25      27      28      19      25      27      29
      20      19      21      22      20      19      21      23
      20      19      21      24      20      19      25      26
      20      19      25      27      21      19      25      26
      21      19      25      27      22      21      19      25
      23      21      19      25      24      21      19      25
      25      27      29      30      25      27      29      31
      25      27      29      49      26      25      27      28
      26      25      27      29      27      29      31      32
      27      29      31      33      27      29      31      34
      27      29      49      50      27      29      49      51
      28      27      29      30      28      27      29      31
      28      27      29      49      29      31      34      35
      29      31      34      36      29      31      34      37
      29      49      51      52      29      49      51      53
      30      29      31      32      30      29      31      33
      30      29      31      34      30      29      49      50
      30      29      49      51      31      29      49      50
      31      29      49      51      31      34      37      38
      31      34      37      39      31      34      37      40
      32      31      29      49      32      31      34      35
      32      31      34      36      32      31      34      37
      33      31      29      49      33      31      34      35
      33      31      34      36      33      31      34      37
      34      31      29      49      34      37      40      41
      34      37      40      42      35      34      37      38
      35      34      37      39      35      34      37      40
      36      34      37      38      36      34      37      39
      36      34      37      40      37      40      42      43
      37      40      42      46      38      37      40      41
      38      37      40      42      39      37      40      41
      39      37      40      42      40      42      43      44
      40      42      43      45      40      42      46      47
      40      42      46      48      41      40      42      43
      41      40      42      46      43      42      46      47
      43      42      46      48      44      43      42      46
      45      43      42      46      49      51      53      54
      49      51      53      55      49      51      53      59
      50      49      51      52      50      49      51      53
      51      53      55      56      51      53      55      57
      51      53      55      58      51      53      59      60
      51      53      59      61      52      51      53      54
      52      51      53      55      52      51      53      59
      53      59      61      62      53      59      61      63
      54      53      55      56      54      53      55      57
      54      53      55      58      54      53      59      60
      54      53      59      61      55      53      59      60
      55      53      59      61      56      55      53      59
      57      55      53      59      58      55      53      59
      59      61      63      64      59      61      63      65
      59      61      63      69      60      59      61      62
      60      59      61      63      61      63      65      66
      61      63      65      67      61      63      65      68
      61      63      69      70      61      63      69      71
      62      61      63      64      62      61      63      65
      62      61      63      69      63      69      71      72
      63      69      71      73      64      63      65      66
      64      63      65      67      64      63      65      68
      64      63      69      70      64      63      69      71
      65      63      69      70      65      63      69      71
      66      65      63      69      67      65      63      69
      68      65      63      69      69      71      73      74
      69      71      73      75      69      71      73      76
      70      69      71      72      70      69      71      73
      72      71      73      74      72      71      73      75
      72      71      73      76

      15 !NIMPHI: impropers
       5       1       7       6       7       5       9       8
      15       9      17      16      17      15      19      18
      25      19      27      26      27      25      29      28
      49      29      51      50      42      43      46      40
      43      44      45      42      46      47      48      42
      51      49      53      52      59      53      61      60
      61      59      63      62      71      69      73      72
      69      63      71      70

      11 !NDON: donors
       7       8      17      18      27      28      40      41
      43      44      43      45      46      47      46      48
      51      52      61      62      71      72

       6 !NACC: acceptors
       6       5      16      15      26      25      50      49
      60      59      70      69

       0 !NNB

       0       0       0       0       0       0       0       0
       0       0       0       0       0       0       0       0
       0       0       0       0       0       0       0       0
       0       0       0       0       0       0       0       0
       0       0       0       0       0       0       0       0
       0       0       0       0       0       0       0       0
       0       0       0       0       0       0       0       0
       0       0       0       0       0       0       0       0
       0       0       0       0       0       0       0       0
       0       0       0       0

      20       0 !NGRP NST2
       0       1       0       4       1       0       6       1       0
      10       1       0      14       1       0      16       1       0
      20       1       0      24       1       0      26       1       0
      30       1       0      33       1       0      36       2       0
      48       1       0      50       1       0      54       1       0
      58       1       0      60       1       0      64       1       0
      68       1       0      70       1       0

       0       0 !NUMLP NUMLPH

       5 !NCRTERM: cross-terms
       5       7       9      15       7       9      15      17
      15      17      19      25      17      19      25      27
      25      27      29      49      27      29      49      51
      49      51      53      59      51      53      59      61
      59      61      63      69      61      63      69      71
