* EXECUTING CHARMM SCRIPT FROM PYTHON
*  DATE:     6/12/25     17:14:10      CREATED BY USER: raheelx
*
   76
    1    1 ALA  CAY  -10.76936  -2.11594   0.35723 PROA 1      0.00000
    2    1 ALA  HY1  -11.25831  -1.37383   1.02395 PROA 1      0.00000
    3    1 ALA  HY2  -10.54684  -3.03991   0.93263 PROA 1      0.00000
    4    1 ALA  HY3  -11.45006  -2.36040  -0.48611 PROA 1      0.00000
    5    1 ALA  CY    -9.50093  -1.54502  -0.17684 PROA 1      0.00000
    6    1 ALA  OY    -8.78724  -2.19244  -0.94129 PROA 1      0.00000
    7    1 ALA  N     -9.18915  -0.29879   0.22156 PROA 1      0.00000
    8    1 ALA  HN    -9.76202   0.23261   0.84079 PROA 1      0.00000
    9    1 ALA  CA    -7.98851   0.32183  -0.24555 PROA 1      0.00000
   10    1 ALA  HA    -7.93615   0.36139  -1.32757 PROA 1      0.00000
   11    1 ALA  CB    -7.82871   1.76974   0.27257 PROA 1      0.00000
   12    1 ALA  HB1   -8.65978   2.39761  -0.11369 PROA 1      0.00000
   13    1 ALA  HB2   -7.86326   1.80249   1.38345 PROA 1      0.00000
   14    1 ALA  HB3   -6.87130   2.22199  -0.06514 PROA 1      0.00000
   15    1 ALA  C     -6.85365  -0.53510   0.19925 PROA 1      0.00000
   16    1 ALA  O     -7.01904  -1.56819   0.84541 PROA 1      0.00000
   17    2 ALA  N     -5.60699  -0.12543  -0.14164 PROA 2      0.00000
   18    2 ALA  HN    -5.52152   0.72055  -0.66719 PROA 2      0.00000
   19    2 ALA  CA    -4.34809  -0.79460   0.17898 PROA 2      0.00000
   20    2 ALA  HA    -4.23941  -0.84535   1.25633 PROA 2      0.00000
   21    2 ALA  CB    -4.42016  -2.24860  -0.34169 PROA 2      0.00000
   22    2 ALA  HB1   -5.30640  -2.75708   0.09436 PROA 2      0.00000
   23    2 ALA  HB2   -4.52290  -2.27181  -1.44859 PROA 2      0.00000
   24    2 ALA  HB3   -3.51662  -2.83024  -0.05793 PROA 2      0.00000
   25    2 ALA  C     -3.09325  -0.07822  -0.35081 PROA 2      0.00000
   26    2 ALA  O     -3.15119   0.97040  -0.99050 PROA 2      0.00000
   27    3 ARG  N     -1.89765  -0.65769  -0.08072 PROA 3      0.00000
   28    3 ARG  HN    -1.92152  -1.50657   0.44219 PROA 3      0.00000
   29    3 ARG  CA    -0.57892  -0.16772  -0.47608 PROA 3      0.00000
   30    3 ARG  HA    -0.51173  -0.17078  -1.55759 PROA 3      0.00000
   31    3 ARG  CB    -0.36158   1.28927   0.02249 PROA 3      0.00000
   32    3 ARG  HB1   -1.16422   1.90634  -0.44775 PROA 3      0.00000
   33    3 ARG  HB2   -0.54084   1.33804   1.11927 PROA 3      0.00000
   34    3 ARG  CG     1.00196   1.92979  -0.33145 PROA 3      0.00000
   35    3 ARG  HG1    1.81227   1.26416   0.03881 PROA 3      0.00000
   36    3 ARG  HG2    1.11522   1.95094  -1.43978 PROA 3      0.00000
   37    3 ARG  CD     1.16934   3.36999   0.18282 PROA 3      0.00000
   38    3 ARG  HD1    0.36949   4.01334  -0.25077 PROA 3      0.00000
   39    3 ARG  HD2    1.10250   3.41759   1.29479 PROA 3      0.00000
   40    3 ARG  NE     2.53389   3.83548  -0.24327 PROA 3      0.00000
   41    3 ARG  HE     3.04580   3.13958  -0.75970 PROA 3      0.00000
   42    3 ARG  CZ     3.01165   5.05499   0.04031 PROA 3      0.00000
   43    3 ARG  NH1    4.23435   5.36319  -0.38609 PROA 3      0.00000
   44    3 ARG  HH11   4.63445   6.24438  -0.17602 PROA 3      0.00000
   45    3 ARG  HH12   4.76131   4.61766  -0.79973 PROA 3      0.00000
   46    3 ARG  NH2    2.29603   5.95840   0.70252 PROA 3      0.00000
   47    3 ARG  HH21   2.64636   6.87690   0.81882 PROA 3      0.00000
   48    3 ARG  HH22   1.34491   5.73812   0.87492 PROA 3      0.00000
   49    3 ARG  C      0.49871  -1.11723   0.02967 PROA 3      0.00000
   50    3 ARG  O      0.21394  -2.12519   0.66896 PROA 3      0.00000
   51    4 ALA  N      1.78103  -0.80173  -0.25596 PROA 4      0.00000
   52    4 ALA  HN     1.98632   0.02533  -0.77848 PROA 4      0.00000
   53    4 ALA  CA     2.93757  -1.59075   0.14559 PROA 4      0.00000
   54    4 ALA  HA     2.97244  -1.64093   1.22787 PROA 4      0.00000
   55    4 ALA  CB     2.74857  -3.03511  -0.37262 PROA 4      0.00000
   56    4 ALA  HB1    1.78888  -3.44507   0.00821 PROA 4      0.00000
   57    4 ALA  HB2    2.71382  -3.05942  -1.48371 PROA 4      0.00000
   58    4 ALA  HB3    3.56754  -3.70352  -0.02952 PROA 4      0.00000
   59    4 ALA  C      4.29054  -1.01291  -0.30618 PROA 4      0.00000
   60    4 ALA  O      4.38159   0.02923  -0.95256 PROA 4      0.00000
   61    5 ALA  N      5.40051  -1.70934   0.04187 PROA 5      0.00000
   62    5 ALA  HN     5.27746  -2.55076   0.56731 PROA 5      0.00000
   63    5 ALA  CA     6.78504  -1.36184  -0.27074 PROA 5      0.00000
   64    5 ALA  HA     6.90916  -1.33942  -1.34737 PROA 5      0.00000
   65    5 ALA  CB     7.06065   0.06740   0.25055 PROA 5      0.00000
   66    5 ALA  HB1    6.32484   0.77325  -0.19042 PROA 5      0.00000
   67    5 ALA  HB2    6.95986   0.11537   1.35684 PROA 5      0.00000
   68    5 ALA  HB3    8.07899   0.41517  -0.02737 PROA 5      0.00000
   69    5 ALA  C      7.82827  -2.35786   0.26603 PROA 5      0.00000
   70    5 ALA  O      7.48526  -3.35334   0.90184 PROA 5      0.00000
   71    5 ALA  NT     9.11697  -2.07781   0.00172 PROA 5      0.00000
   72    5 ALA  HNT    9.40334  -1.27327  -0.51279 PROA 5      0.00000
   73    5 ALA  CAT   10.14847  -2.95308   0.46519 PROA 5      0.00000
   74    5 ALA  HT1    9.99943  -3.96469   0.03072 PROA 5      0.00000
   75    5 ALA  HT2   11.13850  -2.55820   0.15177 PROA 5      0.00000
   76    5 ALA  HT3   10.11002  -3.01734   1.57366 PROA 5      0.00000
