* EXECUTING CHARMM SCRIPT FROM PYTHON
*  DATE:     6/12/25     17:14:10      CREATED BY USER: raheelx
*
   64
    1    1 ALA  CAY  -10.06503  -2.14475   0.28400 PROA 1      0.00000
    2    1 ALA  HY1  -10.61446  -1.51530   1.01629 PROA 1      0.00000
    3    1 ALA  HY2   -9.73948  -3.08602   0.77629 PROA 1      0.00000
    4    1 ALA  HY3  -10.73273  -2.38613  -0.57054 PROA 1      0.00000
    5    1 ALA  CY    -8.87102  -1.40390  -0.21156 PROA 1      0.00000
    6    1 ALA  OY    -8.10944  -1.90824  -1.03529 PROA 1      0.00000
    7    1 ALA  N     -8.68001  -0.17011   0.28873 PROA 1      0.00000
    8    1 ALA  HN    -9.29241   0.24587   0.95652 PROA 1      0.00000
    9    1 ALA  CA    -7.55725   0.60743  -0.13522 PROA 1      0.00000
   10    1 ALA  HA    -7.52895   0.74280  -1.21036 PROA 1      0.00000
   11    1 ALA  CB    -7.53568   2.01548   0.50302 PROA 1      0.00000
   12    1 ALA  HB1   -8.43306   2.58495   0.17975 PROA 1      0.00000
   13    1 ALA  HB2   -7.55306   1.95117   1.61292 PROA 1      0.00000
   14    1 ALA  HB3   -6.63541   2.59031   0.19596 PROA 1      0.00000
   15    1 ALA  C     -6.33339  -0.16283   0.22391 PROA 1      0.00000
   16    1 ALA  O     -6.38131  -1.25800   0.78111 PROA 1      0.00000
   17    2 ALA  N     -5.14115   0.39975  -0.09274 PROA 2      0.00000
   18    2 ALA  HN    -5.15154   1.29114  -0.54497 PROA 2      0.00000
   19    2 ALA  CA    -3.81523  -0.16125   0.15750 PROA 2      0.00000
   20    2 ALA  HA    -3.68228  -0.29080   1.22549 PROA 2      0.00000
   21    2 ALA  CB    -3.74896  -1.56613  -0.48464 PROA 2      0.00000
   22    2 ALA  HB1   -4.57094  -2.19764  -0.08508 PROA 2      0.00000
   23    2 ALA  HB2   -3.86902  -1.50679  -1.58844 PROA 2      0.00000
   24    2 ALA  HB3   -2.78605  -2.07373  -0.26024 PROA 2      0.00000
   25    2 ALA  C     -2.64940   0.72202  -0.32125 PROA 2      0.00000
   26    2 ALA  O     -2.82508   1.80912  -0.86853 PROA 2      0.00000
   27    3 ASP  N     -1.39646   0.24768  -0.11309 PROA 3      0.00000
   28    3 ASP  HN    -1.26011  -0.63405   0.33095 PROA 3      0.00000
   29    3 ASP  CA    -0.14167   0.90180  -0.47784 PROA 3      0.00000
   30    3 ASP  HA    -0.07187   0.97052  -1.55751 PROA 3      0.00000
   31    3 ASP  CB    -0.05036   2.33090   0.14576 PROA 3      0.00000
   32    3 ASP  HB1   -0.88646   2.95028  -0.23673 PROA 3      0.00000
   33    3 ASP  HB2   -0.13015   2.28112   1.24976 PROA 3      0.00000
   34    3 ASP  CG     1.24527   3.04390  -0.21317 PROA 3      0.00000
   35    3 ASP  OD1    1.42438   4.20343   0.23650 PROA 3      0.00000
   36    3 ASP  OD2    1.97788   2.51814  -1.08474 PROA 3      0.00000
   37    3 ASP  C      0.96776  -0.05100  -0.02306 PROA 3      0.00000
   38    3 ASP  O      0.69352  -1.12001   0.52676 PROA 3      0.00000
   39    4 ALA  N      2.23888   0.33435  -0.25179 PROA 4      0.00000
   40    4 ALA  HN     2.40922   1.21084  -0.70118 PROA 4      0.00000
   41    4 ALA  CA     3.42161  -0.42319   0.10195 PROA 4      0.00000
   42    4 ALA  HA     3.44452  -0.56087   1.17693 PROA 4      0.00000
   43    4 ALA  CB     3.31254  -1.82730  -0.53601 PROA 4      0.00000
   44    4 ALA  HB1    2.36972  -2.31396  -0.20684 PROA 4      0.00000
   45    4 ALA  HB2    3.29390  -1.76138  -1.64580 PROA 4      0.00000
   46    4 ALA  HB3    4.15949  -2.48077  -0.23455 PROA 4      0.00000
   47    4 ALA  C      4.74967   0.25574  -0.27730 PROA 4      0.00000
   48    4 ALA  O      4.79674   1.35095  -0.83450 PROA 4      0.00000
   49    5 ALA  N      5.88856  -0.41173   0.03187 PROA 5      0.00000
   50    5 ALA  HN     5.80105  -1.29872   0.48442 PROA 5      0.00000
   51    5 ALA  CA     7.25788   0.02797  -0.22702 PROA 5      0.00000
   52    5 ALA  HA     7.39509   0.14537  -1.29587 PROA 5      0.00000
   53    5 ALA  CB     7.45417   1.42104   0.41428 PROA 5      0.00000
   54    5 ALA  HB1    6.68970   2.12394   0.01981 PROA 5      0.00000
   55    5 ALA  HB2    7.33633   1.37240   1.51885 PROA 5      0.00000
   56    5 ALA  HB3    8.45733   1.84017   0.18359 PROA 5      0.00000
   57    5 ALA  C      8.34270  -0.95657   0.24452 PROA 5      0.00000
   58    5 ALA  O      8.04180  -2.01684   0.79059 PROA 5      0.00000
   59    5 ALA  NT     9.61907  -0.59271   0.02656 PROA 5      0.00000
   60    5 ALA  HNT    9.87140   0.26469  -0.41527 PROA 5      0.00000
   61    5 ALA  CAT   10.68707  -1.45158   0.43474 PROA 5      0.00000
   62    5 ALA  HT1   10.59499  -2.42992  -0.08364 PROA 5      0.00000
   63    5 ALA  HT2   11.66005  -0.98402   0.17203 PROA 5      0.00000
   64    5 ALA  HT3   10.63711  -1.60905   1.53338 PROA 5      0.00000
