PSF CMAP XPLOR

       2 !NTITLE
* EXECUTING CHARMM SCRIPT FROM PYTHON                                           
*  DATE:     6/12/25     17:14:10      CREATED BY USER: raheelx                 

      64 !NATOM
       1 PROA 1    ALA  CAY  CT3   -0.270000       12.0110           0
       2 PROA 1    ALA  HY1  HA3    0.900000E-01   1.00800           0
       3 PROA 1    ALA  HY2  HA3    0.900000E-01   1.00800           0
       4 PROA 1    ALA  HY3  HA3    0.900000E-01   1.00800           0
       5 PROA 1    ALA  CY   C      0.510000       12.0110           0
       6 PROA 1    ALA  OY   O     -0.510000       15.9994           0
       7 PROA 1    ALA  N    NH1   -0.470000       14.0070           0
       8 PROA 1    ALA  HN   H      0.310000       1.00800           0
       9 PROA 1    ALA  CA   CT1    0.700000E-01   12.0110           0
      10 PROA 1    ALA  HA   HB1    0.900000E-01   1.00800           0
      11 PROA 1    ALA  CB   CT3   -0.270000       12.0110           0
      12 PROA 1    ALA  HB1  HA3    0.900000E-01   1.00800           0
      13 PROA 1    ALA  HB2  HA3    0.900000E-01   1.00800           0
      14 PROA 1    ALA  HB3  HA3    0.900000E-01   1.00800           0
      15 PROA 1    ALA  C    C      0.510000       12.0110           0
      16 PROA 1    ALA  O    O     -0.510000       15.9994           0
      17 PROA 2    ALA  N    NH1   -0.470000       14.0070           0
      18 PROA 2    ALA  HN   H      0.310000       1.00800           0
      19 PROA 2    ALA  CA   CT1    0.700000E-01   12.0110           0
      20 PROA 2    ALA  HA   HB1    0.900000E-01   1.00800           0
      21 PROA 2    ALA  CB   CT3   -0.270000       12.0110           0
      22 PROA 2    ALA  HB1  HA3    0.900000E-01   1.00800           0
      23 PROA 2    ALA  HB2  HA3    0.900000E-01   1.00800           0
      24 PROA 2    ALA  HB3  HA3    0.900000E-01   1.00800           0
      25 PROA 2    ALA  C    C      0.510000       12.0110           0
      26 PROA 2    ALA  O    O     -0.510000       15.9994           0
      27 PROA 3    ASP  N    NH1   -0.470000       14.0070           0
      28 PROA 3    ASP  HN   H      0.310000       1.00800           0
      29 PROA 3    ASP  CA   CT1    0.700000E-01   12.0110           0
      30 PROA 3    ASP  HA   HB1    0.900000E-01   1.00800           0
      31 PROA 3    ASP  CB   CT2A  -0.280000       12.0110           0
      32 PROA 3    ASP  HB1  HA2    0.900000E-01   1.00800           0
      33 PROA 3    ASP  HB2  HA2    0.900000E-01   1.00800           0
      34 PROA 3    ASP  CG   CC     0.620000       12.0110           0
      35 PROA 3    ASP  OD1  OC    -0.760000       15.9994           0
      36 PROA 3    ASP  OD2  OC    -0.760000       15.9994           0
      37 PROA 3    ASP  C    C      0.510000       12.0110           0
      38 PROA 3    ASP  O    O     -0.510000       15.9994           0
      39 PROA 4    ALA  N    NH1   -0.470000       14.0070           0
      40 PROA 4    ALA  HN   H      0.310000       1.00800           0
      41 PROA 4    ALA  CA   CT1    0.700000E-01   12.0110           0
      42 PROA 4    ALA  HA   HB1    0.900000E-01   1.00800           0
      43 PROA 4    ALA  CB   CT3   -0.270000       12.0110           0
      44 PROA 4    ALA  HB1  HA3    0.900000E-01   1.00800           0
      45 PROA 4    ALA  HB2  HA3    0.900000E-01   1.00800           0
      46 PROA 4    ALA  HB3  HA3    0.900000E-01   1.00800           0
      47 PROA 4    ALA  C    C      0.510000       12.0110           0
      48 PROA 4    ALA  O    O     -0.510000       15.9994           0
      49 PROA 5    ALA  N    NH1   -0.470000       14.0070           0
      50 PROA 5    ALA  HN   H      0.310000       1.00800           0
      51 PROA 5    ALA  CA   CT1    0.700000E-01   12.0110           0
      52 PROA 5    ALA  HA   HB1    0.900000E-01   1.00800           0
      53 PROA 5    ALA  CB   CT3   -0.270000       12.0110           0
      54 PROA 5    ALA  HB1  HA3    0.900000E-01   1.00800           0
      55 PROA 5    ALA  HB2  HA3    0.900000E-01   1.00800           0
      56 PROA 5    ALA  HB3  HA3    0.900000E-01   1.00800           0
      57 PROA 5    ALA  C    C      0.510000       12.0110           0
      58 PROA 5    ALA  O    O     -0.510000       15.9994           0
      59 PROA 5    ALA  NT   NH1   -0.470000       14.0070           0
      60 PROA 5    ALA  HNT  H      0.310000       1.00800           0
      61 PROA 5    ALA  CAT  CT3   -0.110000       12.0110           0
      62 PROA 5    ALA  HT1  HA3    0.900000E-01   1.00800           0
      63 PROA 5    ALA  HT2  HA3    0.900000E-01   1.00800           0
      64 PROA 5    ALA  HT3  HA3    0.900000E-01   1.00800           0

      63 !NBOND: bonds
       5       1       5       7       1       2       1       3
       1       4       6       5      11       9       7       8
       7       9      15       9      15      17       9      10
      11      12      11      13      11      14      16      15
      21      19      17      18      17      19      25      19
      25      27      19      20      21      22      21      23
      21      24      26      25      31      29      34      31
      36      34      27      28      27      29      37      29
      37      39      29      30      31      32      31      33
      38      37      34      35      43      41      39      40
      39      41      47      41      47      49      41      42
      43      44      43      45      43      46      48      47
      53      51      49      50      49      51      57      51
      51      52      53      54      53      55      53      56
      58      57      57      59      59      60      59      61
      61      62      61      63      61      64

     111 !NTHETA: angles
       1       5       6       1       5       7       2       1       3
       2       1       4       2       1       5       3       1       4
       3       1       5       4       1       5       5       7       8
       5       7       9       6       5       7       7       9      10
       7       9      11       7       9      15       8       7       9
       9      11      12       9      11      13       9      11      14
       9      15      16       9      15      17      10       9      11
      10       9      15      11       9      15      12      11      13
      12      11      14      13      11      14      15      17      18
      15      17      19      16      15      17      17      19      20
      17      19      21      17      19      25      18      17      19
      19      21      22      19      21      23      19      21      24
      19      25      26      19      25      27      20      19      21
      20      19      25      21      19      25      22      21      23
      22      21      24      23      21      24      25      27      28
      25      27      29      26      25      27      27      29      30
      27      29      31      27      29      37      28      27      29
      29      31      32      29      31      33      29      31      34
      29      37      38      29      37      39      30      29      31
      30      29      37      31      29      37      31      34      35
      31      34      36      32      31      33      32      31      34
      33      31      34      35      34      36      37      39      40
      37      39      41      38      37      39      39      41      42
      39      41      43      39      41      47      40      39      41
      41      43      44      41      43      45      41      43      46
      41      47      48      41      47      49      42      41      43
      42      41      47      43      41      47      44      43      45
      44      43      46      45      43      46      47      49      50
      47      49      51      48      47      49      49      51      52
      49      51      53      49      51      57      50      49      51
      51      53      54      51      53      55      51      53      56
      51      57      58      51      57      59      52      51      53
      52      51      57      53      51      57      54      53      55
      54      53      56      55      53      56      57      59      60
      57      59      61      58      57      59      59      61      62
      59      61      63      59      61      64      60      59      61
      62      61      63      62      61      64      63      61      64

     147 !NPHI: dihedrals
       1       5       7       8       1       5       7       9
       2       1       5       6       2       1       5       7
       3       1       5       6       3       1       5       7
       4       1       5       6       4       1       5       7
       5       7       9      10       5       7       9      11
       5       7       9      15       6       5       7       8
       6       5       7       9       7       9      11      12
       7       9      11      13       7       9      11      14
       7       9      15      16       7       9      15      17
       8       7       9      10       8       7       9      11
       8       7       9      15       9      15      17      18
       9      15      17      19      10       9      11      12
      10       9      11      13      10       9      11      14
      10       9      15      16      10       9      15      17
      11       9      15      16      11       9      15      17
      12      11       9      15      13      11       9      15
      14      11       9      15      15      17      19      20
      15      17      19      21      15      17      19      25
      16      15      17      18      16      15      17      19
      17      19      21      22      17      19      21      23
      17      19      21      24      17      19      25      26
      17      19      25      27      18      17      19      20
      18      17      19      21      18      17      19      25
      19      25      27      28      19      25      27      29
      20      19      21      22      20      19      21      23
      20      19      21      24      20      19      25      26
      20      19      25      27      21      19      25      26
      21      19      25      27      22      21      19      25
      23      21      19      25      24      21      19      25
      25      27      29      30      25      27      29      31
      25      27      29      37      26      25      27      28
      26      25      27      29      27      29      31      32
      27      29      31      33      27      29      31      34
      27      29      37      38      27      29      37      39
      28      27      29      30      28      27      29      31
      28      27      29      37      29      31      34      35
      29      31      34      36      29      37      39      40
      29      37      39      41      30      29      31      32
      30      29      31      33      30      29      31      34
      30      29      37      38      30      29      37      39
      31      29      37      38      31      29      37      39
      32      31      29      37      32      31      34      35
      32      31      34      36      33      31      29      37
      33      31      34      35      33      31      34      36
      34      31      29      37      37      39      41      42
      37      39      41      43      37      39      41      47
      38      37      39      40      38      37      39      41
      39      41      43      44      39      41      43      45
      39      41      43      46      39      41      47      48
      39      41      47      49      40      39      41      42
      40      39      41      43      40      39      41      47
      41      47      49      50      41      47      49      51
      42      41      43      44      42      41      43      45
      42      41      43      46      42      41      47      48
      42      41      47      49      43      41      47      48
      43      41      47      49      44      43      41      47
      45      43      41      47      46      43      41      47
      47      49      51      52      47      49      51      53
      47      49      51      57      48      47      49      50
      48      47      49      51      49      51      53      54
      49      51      53      55      49      51      53      56
      49      51      57      58      49      51      57      59
      50      49      51      52      50      49      51      53
      50      49      51      57      51      57      59      60
      51      57      59      61      52      51      53      54
      52      51      53      55      52      51      53      56
      52      51      57      58      52      51      57      59
      53      51      57      58      53      51      57      59
      54      53      51      57      55      53      51      57
      56      53      51      57      57      59      61      62
      57      59      61      63      57      59      61      64
      58      57      59      60      58      57      59      61
      60      59      61      62      60      59      61      63
      60      59      61      64

      13 !NIMPHI: impropers
       5       1       7       6       7       5       9       8
      15       9      17      16      17      15      19      18
      25      19      27      26      27      25      29      28
      37      29      39      38      34      31      36      35
      39      37      41      40      47      41      49      48
      49      47      51      50      59      57      61      60
      57      51      59      58

       6 !NDON: donors
       7       8      17      18      27      28      39      40
      49      50      59      60

       8 !NACC: acceptors
       6       5      16      15      26      25      35      34
      36      34      38      37      48      47      58      57

       0 !NNB

       0       0       0       0       0       0       0       0
       0       0       0       0       0       0       0       0
       0       0       0       0       0       0       0       0
       0       0       0       0       0       0       0       0
       0       0       0       0       0       0       0       0
       0       0       0       0       0       0       0       0
       0       0       0       0       0       0       0       0
       0       0       0       0       0       0       0       0

      18       0 !NGRP NST2
       0       1       0       4       1       0       6       1       0
      10       1       0      14       1       0      16       1       0
      20       1       0      24       1       0      26       1       0
      30       2       0      36       1       0      38       1       0
      42       1       0      46       1       0      48       1       0
      52       1       0      56       1       0      58       1       0

       0       0 !NUMLP NUMLPH

       5 !NCRTERM: cross-terms
       5       7       9      15       7       9      15      17
      15      17      19      25      17      19      25      27
      25      27      29      37      27      29      37      39
      37      39      41      47      39      41      47      49
      47      49      51      57      49      51      57      59
