* EXECUTING CHARMM SCRIPT FROM PYTHON
*  DATE:     6/12/25     17:14:10      CREATED BY USER: raheelx
*
   63
    1    1 ALA  CAY   -9.99921  -2.17663   0.33558 PROA 1      0.00000
    2    1 ALA  HY1  -10.55200  -1.54204   1.06086 PROA 1      0.00000
    3    1 ALA  HY2   -9.65825  -3.10518   0.84141 PROA 1      0.00000
    4    1 ALA  HY3  -10.66925  -2.44098  -0.51028 PROA 1      0.00000
    5    1 ALA  CY    -8.81818  -1.42892  -0.18037 PROA 1      0.00000
    6    1 ALA  OY    -8.05547  -1.93723  -1.00061 PROA 1      0.00000
    7    1 ALA  N     -8.63998  -0.18449   0.29783 PROA 1      0.00000
    8    1 ALA  HN    -9.25338   0.23477   0.96264 PROA 1      0.00000
    9    1 ALA  CA    -7.53020   0.60018  -0.14667 PROA 1      0.00000
   10    1 ALA  HA    -7.51066   0.71774  -1.22410 PROA 1      0.00000
   11    1 ALA  CB    -7.52279   2.01897   0.46768 PROA 1      0.00000
   12    1 ALA  HB1   -8.42959   2.57128   0.14092 PROA 1      0.00000
   13    1 ALA  HB2   -7.53212   1.97320   1.57859 PROA 1      0.00000
   14    1 ALA  HB3   -6.63209   2.60010   0.14496 PROA 1      0.00000
   15    1 ALA  C     -6.29412  -0.14806   0.21712 PROA 1      0.00000
   16    1 ALA  O     -6.32418  -1.23419   0.79295 PROA 1      0.00000
   17    2 ALA  N     -5.11138   0.42441  -0.11694 PROA 2      0.00000
   18    2 ALA  HN    -5.13630   1.30783  -0.58400 PROA 2      0.00000
   19    2 ALA  CA    -3.77668  -0.11514   0.13378 PROA 2      0.00000
   20    2 ALA  HA    -3.63512  -0.22492   1.20287 PROA 2      0.00000
   21    2 ALA  CB    -3.69633  -1.52969  -0.48510 PROA 2      0.00000
   22    2 ALA  HB1   -4.50741  -2.16491  -0.06948 PROA 2      0.00000
   23    2 ALA  HB2   -3.82433  -1.49054  -1.58892 PROA 2      0.00000
   24    2 ALA  HB3   -2.72546  -2.02098  -0.25869 PROA 2      0.00000
   25    2 ALA  C     -2.62557   0.77488  -0.36757 PROA 2      0.00000
   26    2 ALA  O     -2.81893   1.85023  -0.93184 PROA 2      0.00000
   27    3 CYS  N     -1.36524   0.32031  -0.15990 PROA 3      0.00000
   28    3 CYS  HN    -1.24589  -0.55684   0.30137 PROA 3      0.00000
   29    3 CYS  CA    -0.12146   0.98430  -0.54401 PROA 3      0.00000
   30    3 CYS  HA    -0.07677   1.04613  -1.62502 PROA 3      0.00000
   31    3 CYS  CB    -0.00927   2.40234   0.09253 PROA 3      0.00000
   32    3 CYS  HB1   -0.87664   2.99743  -0.27242 PROA 3      0.00000
   33    3 CYS  HB2   -0.12861   2.33088   1.19620 PROA 3      0.00000
   34    3 CYS  SG     1.53287   3.29514  -0.34936 PROA 3      0.00000
   35    3 CYS  HG1    1.25301   4.43442   0.28590 PROA 3      0.00000
   36    3 CYS  C      0.99956   0.06500  -0.08664 PROA 3      0.00000
   37    3 CYS  O      0.74628  -0.99654   0.48201 PROA 3      0.00000
   38    4 ALA  N      2.27372   0.44408  -0.32071 PROA 4      0.00000
   39    4 ALA  HN     2.46185   1.30968  -0.78391 PROA 4      0.00000
   40    4 ALA  CA     3.44630  -0.32925   0.05802 PROA 4      0.00000
   41    4 ALA  HA     3.45810  -0.44827   1.13541 PROA 4      0.00000
   42    4 ALA  CB     3.31993  -1.74250  -0.55614 PROA 4      0.00000
   43    4 ALA  HB1    2.36671  -2.20817  -0.22655 PROA 4      0.00000
   44    4 ALA  HB2    3.31153  -1.69590  -1.66703 PROA 4      0.00000
   45    4 ALA  HB3    4.15373  -2.40395  -0.23604 PROA 4      0.00000
   46    4 ALA  C      4.78820   0.32162  -0.32170 PROA 4      0.00000
   47    4 ALA  O      4.85749   1.40592  -0.89759 PROA 4      0.00000
   48    5 ALA  N      5.91361  -0.35837   0.00884 PROA 5      0.00000
   49    5 ALA  HN     5.80810  -1.23571   0.47610 PROA 5      0.00000
   50    5 ALA  CA     7.29192   0.05481  -0.24600 PROA 5      0.00000
   51    5 ALA  HA     7.43983   0.15111  -1.31553 PROA 5      0.00000
   52    5 ALA  CB     7.50530   1.45568   0.37244 PROA 5      0.00000
   53    5 ALA  HB1    6.75552   2.16361  -0.04082 PROA 5      0.00000
   54    5 ALA  HB2    7.37757   1.42845   1.47664 PROA 5      0.00000
   55    5 ALA  HB3    8.51694   1.85462   0.14301 PROA 5      0.00000
   56    5 ALA  C      8.35683  -0.93843   0.25198 PROA 5      0.00000
   57    5 ALA  O      8.03440  -1.98395   0.81396 PROA 5      0.00000
   58    5 ALA  NT     9.64064  -0.59886   0.03859 PROA 5      0.00000
   59    5 ALA  HNT    9.91038   0.24647  -0.41602 PROA 5      0.00000
   60    5 ALA  CAT   10.69127  -1.46731   0.47087 PROA 5      0.00000
   61    5 ALA  HT1   10.58774  -2.45306  -0.03104 PROA 5      0.00000
   62    5 ALA  HT2   11.67379  -1.02003   0.20834 PROA 5      0.00000
   63    5 ALA  HT3   10.62971  -1.60453   1.57165 PROA 5      0.00000
