* EXECUTING CHARMM SCRIPT FROM PYTHON
*  DATE:     6/12/25     17:12:43      CREATED BY USER: raheelx
*
   33
    1    1 GUA  H5T    3.07532  -2.79686  -0.35059 PROA 1      0.00000
    2    1 GUA  O5'    2.67534  -1.94220  -0.17405 PROA 1      0.00000
    3    1 GUA  C5'    3.06424  -1.08861  -1.26676 PROA 1      0.00000
    4    1 GUA  H5'    2.61080  -1.47544  -2.20436 PROA 1      0.00000
    5    1 GUA  H5''   4.16584  -0.94724  -1.23831 PROA 1      0.00000
    6    1 GUA  C4'    2.46334   0.28645  -1.05134 PROA 1      0.00000
    7    1 GUA  H4'    2.67004   0.95205  -1.91654 PROA 1      0.00000
    8    1 GUA  O4'    1.01580   0.16474  -0.93621 PROA 1      0.00000
    9    1 GUA  C1'    0.77255   0.55393   0.04123 PROA 1      0.00000
   10    1 GUA  H1'    0.43005   1.56715  -0.25942 PROA 1      0.00000
   11    1 GUA  N9    -0.28266  -0.46467   0.30179 PROA 1      0.00000
   12    1 GUA  C4    -1.63583  -0.28460   0.11146 PROA 1      0.00000
   13    1 GUA  N2    -4.30101   1.73206  -0.84958 PROA 1      0.00000
   14    1 GUA  H21   -5.30585   1.74967  -0.94997 PROA 1      0.00000
   15    1 GUA  H22   -3.80808   2.57689  -1.10133 PROA 1      0.00000
   16    1 GUA  N3    -2.23306   0.84379  -0.34248 PROA 1      0.00000
   17    1 GUA  C2    -3.55090   0.70768  -0.41799 PROA 1      0.00000
   18    1 GUA  N1    -4.22614  -0.44036  -0.07639 PROA 1      0.00000
   19    1 GUA  H1    -5.25142  -0.43427  -0.17463 PROA 1      0.00000
   20    1 GUA  C6    -3.62740  -1.60786   0.39148 PROA 1      0.00000
   21    1 GUA  O6    -4.32534  -2.59206   0.67317 PROA 1      0.00000
   22    1 GUA  C5    -2.22283  -1.47554   0.47646 PROA 1      0.00000
   23    1 GUA  N7    -1.26096  -2.39193   0.88980 PROA 1      0.00000
   24    1 GUA  C8    -0.13336  -1.74832   0.76850 PROA 1      0.00000
   25    1 GUA  H8     0.84714  -2.16103   1.00595 PROA 1      0.00000
   26    1 GUA  C2'    1.75931   0.65491   1.09887 PROA 1      0.00000
   27    1 GUA  H2''   1.94014  -0.33434   1.57110 PROA 1      0.00000
   28    1 GUA  O2'    1.44243   1.72750   1.97578 PROA 1      0.00000
   29    1 GUA  H2'    0.51578   1.79270   2.21797 PROA 1      0.00000
   30    1 GUA  C3'    2.87836   1.00834   0.23031 PROA 1      0.00000
   31    1 GUA  H3'    3.81190   0.53566   0.60367 PROA 1      0.00000
   32    1 GUA  O3'    3.11471   2.40251   0.08798 PROA 1      0.00000
   33    1 GUA  H3T    2.91175   2.92930   0.86444 PROA 1      0.00000
