* EXECUTING CHARMM SCRIPT FROM PYTHON
*  DATE:     6/12/25     17:14:10      CREATED BY USER: raheelx
*
   63
    1    1 ALA  CAY  -10.00488  -2.15508   0.30803 PROA 1      0.00000
    2    1 ALA  HY1  -10.55699  -1.52701   1.03948 PROA 1      0.00000
    3    1 ALA  HY2   -9.66854  -3.09079   0.80367 PROA 1      0.00000
    4    1 ALA  HY3  -10.67395  -2.40697  -0.54240 PROA 1      0.00000
    5    1 ALA  CY    -8.81990  -1.40578  -0.19640 PROA 1      0.00000
    6    1 ALA  OY    -8.05719  -1.90725  -1.02084 PROA 1      0.00000
    7    1 ALA  N     -8.63819  -0.16774   0.29681 PROA 1      0.00000
    8    1 ALA  HN    -9.25156   0.24596   0.96512 PROA 1      0.00000
    9    1 ALA  CA    -7.52448   0.61796  -0.13590 PROA 1      0.00000
   10    1 ALA  HA    -7.50201   0.74811  -1.21182 PROA 1      0.00000
   11    1 ALA  CB    -7.51323   2.02938   0.49512 PROA 1      0.00000
   12    1 ALA  HB1   -8.41721   2.58889   0.17283 PROA 1      0.00000
   13    1 ALA  HB2   -7.52529   1.97058   1.60540 PROA 1      0.00000
   14    1 ALA  HB3   -6.61963   2.61094   0.18128 PROA 1      0.00000
   15    1 ALA  C     -6.29203  -0.13912   0.22186 PROA 1      0.00000
   16    1 ALA  O     -6.32745  -1.23183   0.78479 PROA 1      0.00000
   17    2 ALA  N     -5.10640   0.43282  -0.10276 PROA 2      0.00000
   18    2 ALA  HN    -5.12697   1.32175  -0.55945 PROA 2      0.00000
   19    2 ALA  CA    -3.77430  -0.11463   0.14461 PROA 2      0.00000
   20    2 ALA  HA    -3.63562  -0.23751   1.21266 PROA 2      0.00000
   21    2 ALA  CB    -3.69777  -1.52210  -0.49069 PROA 2      0.00000
   22    2 ALA  HB1   -4.51215  -2.15913  -0.08441 PROA 2      0.00000
   23    2 ALA  HB2   -3.82307  -1.46949  -1.59426 PROA 2      0.00000
   24    2 ALA  HB3   -2.72925  -2.01964  -0.26788 PROA 2      0.00000
   25    2 ALA  C     -2.61874   0.77691  -0.34361 PROA 2      0.00000
   26    2 ALA  O     -2.80680   1.85954  -0.89562 PROA 2      0.00000
   27    3 SER  N     -1.36059   0.31522  -0.13845 PROA 3      0.00000
   28    3 SER  HN    -1.23514  -0.56824   0.31273 PROA 3      0.00000
   29    3 SER  CA    -0.11347   0.97903  -0.51190 PROA 3      0.00000
   30    3 SER  HA    -0.06800   1.03742  -1.59146 PROA 3      0.00000
   31    3 SER  CB     0.05844   2.40595   0.09083 PROA 3      0.00000
   32    3 SER  HB1   -0.77796   3.04142  -0.28014 PROA 3      0.00000
   33    3 SER  HB2   -0.02481   2.37072   1.20076 PROA 3      0.00000
   34    3 SER  OG     1.29381   3.02044  -0.30020 PROA 3      0.00000
   35    3 SER  HG1    1.22564   3.95839  -0.08161 PROA 3      0.00000
   36    3 SER  C      0.99899   0.05106  -0.06317 PROA 3      0.00000
   37    3 SER  O      0.73199  -1.01294   0.49095 PROA 3      0.00000
   38    4 ALA  N      2.26649   0.43661  -0.29401 PROA 4      0.00000
   39    4 ALA  HN     2.44811   1.30882  -0.74729 PROA 4      0.00000
   40    4 ALA  CA     3.44323  -0.33312   0.07167 PROA 4      0.00000
   41    4 ALA  HA     3.45880  -0.46499   1.14751 PROA 4      0.00000
   42    4 ALA  CB     3.32360  -1.73962  -0.55909 PROA 4      0.00000
   43    4 ALA  HB1    2.37414  -2.21497  -0.23250 PROA 4      0.00000
   44    4 ALA  HB2    3.31177  -1.67974  -1.66931 PROA 4      0.00000
   45    4 ALA  HB3    4.16226  -2.39983  -0.24928 PROA 4      0.00000
   46    4 ALA  C      4.78012   0.33036  -0.30390 PROA 4      0.00000
   47    4 ALA  O      4.84126   1.42190  -0.86690 PROA 4      0.00000
   48    5 ALA  N      5.91052  -0.34674   0.01533 PROA 5      0.00000
   49    5 ALA  HN     5.81160  -1.23026   0.47230 PROA 5      0.00000
   50    5 ALA  CA     7.28560   0.07778  -0.23832 PROA 5      0.00000
   51    5 ALA  HA     7.42989   0.18781  -1.30703 PROA 5      0.00000
   52    5 ALA  CB     7.49231   1.47239   0.39632 PROA 5      0.00000
   53    5 ALA  HB1    6.73713   2.18068  -0.00631 PROA 5      0.00000
   54    5 ALA  HB2    7.36787   1.43112   1.50047 PROA 5      0.00000
   55    5 ALA  HB3    8.50088   1.88016   0.16892 PROA 5      0.00000
   56    5 ALA  C      8.35785  -0.91492   0.24473 PROA 5      0.00000
   57    5 ALA  O      8.04330  -1.96904   0.79498 PROA 5      0.00000
   58    5 ALA  NT     9.63900  -0.56507   0.03189 PROA 5      0.00000
   59    5 ALA  HNT    9.90236   0.28727  -0.41326 PROA 5      0.00000
   60    5 ALA  CAT   10.69604  -1.43229   0.45080 PROA 5      0.00000
   61    5 ALA  HT1   10.59701  -2.41254  -0.06264 PROA 5      0.00000
   62    5 ALA  HT2   11.67511  -0.97596   0.19095 PROA 5      0.00000
   63    5 ALA  HT3   10.63842  -1.58309   1.55001 PROA 5      0.00000
