* EXECUTING CHARMM SCRIPT FROM PYTHON
*  DATE:     6/12/25     17:14:10      CREATED BY USER: raheelx
*
   73
    1    1 ALA  CAY  -10.59480  -2.19354   0.03163 PROA 1      0.00000
    2    1 ALA  HY1  -11.12010  -1.64085   0.83967 PROA 1      0.00000
    3    1 ALA  HY2  -10.31359  -3.20424   0.39730 PROA 1      0.00000
    4    1 ALA  HY3  -11.26773  -2.29210  -0.84688 PROA 1      0.00000
    5    1 ALA  CY    -9.36672  -1.44814  -0.36370 PROA 1      0.00000
    6    1 ALA  OY    -8.62347  -1.87441  -1.24619 PROA 1      0.00000
    7    1 ALA  N     -9.12450  -0.29945   0.29269 PROA 1      0.00000
    8    1 ALA  HN    -9.72172   0.05295   1.00904 PROA 1      0.00000
    9    1 ALA  CA    -7.96637   0.47614  -0.02686 PROA 1      0.00000
   10    1 ALA  HA    -7.92624   0.74862  -1.07528 PROA 1      0.00000
   11    1 ALA  CB    -7.88654   1.78702   0.78901 PROA 1      0.00000
   12    1 ALA  HB1   -8.75627   2.43278   0.54273 PROA 1      0.00000
   13    1 ALA  HB2   -7.91284   1.57993   1.88114 PROA 1      0.00000
   14    1 ALA  HB3   -6.96023   2.35648   0.55907 PROA 1      0.00000
   15    1 ALA  C     -6.77949  -0.38761   0.22880 PROA 1      0.00000
   16    1 ALA  O     -6.87851  -1.54268   0.63891 PROA 1      0.00000
   17    2 ALA  N     -5.56198   0.15803  -0.01231 PROA 2      0.00000
   18    2 ALA  HN    -5.53075   1.10019  -0.34483 PROA 2      0.00000
   19    2 ALA  CA    -4.26336  -0.48881   0.16256 PROA 2      0.00000
   20    2 ALA  HA    -4.14212  -0.76174   1.20460 PROA 2      0.00000
   21    2 ALA  CB    -4.25528  -1.79993  -0.65679 PROA 2      0.00000
   22    2 ALA  HB1   -5.10637  -2.44101  -0.34252 PROA 2      0.00000
   23    2 ALA  HB2   -4.36654  -1.59247  -1.74348 PROA 2      0.00000
   24    2 ALA  HB3   -3.31683  -2.37447  -0.50052 PROA 2      0.00000
   25    2 ALA  C     -3.05727   0.39672  -0.19759 PROA 2      0.00000
   26    2 ALA  O     -3.18205   1.55239  -0.59886 PROA 2      0.00000
   27    3 TYR  N     -1.82752  -0.15560  -0.05317 PROA 3      0.00000
   28    3 TYR  HN    -1.76003  -1.09636   0.27486 PROA 3      0.00000
   29    3 TYR  CA    -0.54325   0.48421  -0.33009 PROA 3      0.00000
   30    3 TYR  HA    -0.48276   0.69086  -1.39177 PROA 3      0.00000
   31    3 TYR  CB    -0.37023   1.79681   0.49611 PROA 3      0.00000
   32    3 TYR  HB1   -1.17351   2.51249   0.21525 PROA 3      0.00000
   33    3 TYR  HB2   -0.47666   1.59343   1.58365 PROA 3      0.00000
   34    3 TYR  CG     0.94854   2.48742   0.23542 PROA 3      0.00000
   35    3 TYR  CD1    1.06193   3.44661  -0.78685 PROA 3      0.00000
   36    3 TYR  HD1    0.18713   3.73324  -1.35431 PROA 3      0.00000
   37    3 TYR  CE1    2.30683   4.01742  -1.08964 PROA 3      0.00000
   38    3 TYR  HE1    2.39878   4.74766  -1.87989 PROA 3      0.00000
   39    3 TYR  CZ     3.44488   3.63798  -0.37221 PROA 3      0.00000
   40    3 TYR  OH     4.69427   4.19190  -0.70368 PROA 3      0.00000
   41    3 TYR  HH     5.33140   3.86947  -0.06294 PROA 3      0.00000
   42    3 TYR  CD2    2.09810   2.12712   0.96191 PROA 3      0.00000
   43    3 TYR  HD2    2.03377   1.37686   1.73791 PROA 3      0.00000
   44    3 TYR  CE2    3.34250   2.69613   0.65556 PROA 3      0.00000
   45    3 TYR  HE2    4.22167   2.38822   1.20166 PROA 3      0.00000
   46    3 TYR  C      0.53187  -0.54659  -0.01118 PROA 3      0.00000
   47    3 TYR  O      0.22670  -1.66550   0.39456 PROA 3      0.00000
   48    4 ALA  N      1.81616  -0.17805  -0.19273 PROA 4      0.00000
   49    4 ALA  HN     2.03511   0.73926  -0.52410 PROA 4      0.00000
   50    4 ALA  CA     2.95769  -1.03697   0.06306 PROA 4      0.00000
   51    4 ALA  HA     2.96372  -1.31373   1.11112 PROA 4      0.00000
   52    4 ALA  CB     2.78292  -2.33908  -0.75205 PROA 4      0.00000
   53    4 ALA  HB1    1.81353  -2.81478  -0.49114 PROA 4      0.00000
   54    4 ALA  HB2    2.77781  -2.12909  -1.84393 PROA 4      0.00000
   55    4 ALA  HB3    3.59263  -3.06907  -0.53592 PROA 4      0.00000
   56    4 ALA  C      4.32208  -0.38434  -0.22161 PROA 4      0.00000
   57    4 ALA  O      4.43007   0.76989  -0.63179 PROA 4      0.00000
   58    5 ALA  N      5.42255  -1.14433   0.00106 PROA 5      0.00000
   59    5 ALA  HN     5.28574  -2.07672   0.33441 PROA 5      0.00000
   60    5 ALA  CA     6.81483  -0.74630  -0.19522 PROA 5      0.00000
   61    5 ALA  HA     6.96760  -0.49872  -1.23945 PROA 5      0.00000
   62    5 ALA  CB     7.07610   0.53991   0.62198 PROA 5      0.00000
   63    5 ALA  HB1    6.35214   1.32663   0.32025 PROA 5      0.00000
   64    5 ALA  HB2    6.94585   0.35478   1.71060 PROA 5      0.00000
   65    5 ALA  HB3    8.10141   0.93287   0.45009 PROA 5      0.00000
   66    5 ALA  C      7.84364  -1.83849   0.14714 PROA 5      0.00000
   67    5 ALA  O      7.48404  -2.94353   0.55021 PROA 5      0.00000
   68    5 ALA  NT     9.13885  -1.51606  -0.01863 PROA 5      0.00000
   69    5 ALA  HNT    9.43863  -0.62288  -0.34479 PROA 5      0.00000
   70    5 ALA  CAT   10.15785  -2.47472   0.27718 PROA 5      0.00000
   71    5 ALA  HT1   10.02069  -3.37157  -0.36404 PROA 5      0.00000
   72    5 ALA  HT2   11.15578  -2.02809   0.07977 PROA 5      0.00000
   73    5 ALA  HT3   10.08988  -2.77036   1.34597 PROA 5      0.00000
