PSF CMAP XPLOR

       2 !NTITLE
* EXECUTING CHARMM SCRIPT FROM PYTHON                                           
*  DATE:     6/12/25     17:12:43      CREATED BY USER: raheelx                 

      32 !NATOM
       1 PROA 1    ADE  H5T  HN5    0.430000       1.00800           0
       2 PROA 1    ADE  O5'  ON5   -0.660000       15.9994           0
       3 PROA 1    ADE  C5'  CN8B   0.500000E-01   12.0110           0
       4 PROA 1    ADE  H5'  HN8    0.900000E-01   1.00800           0
       5 PROA 1    ADE  H5'' HN8    0.900000E-01   1.00800           0
       6 PROA 1    ADE  C4'  CN7    0.160000       12.0110           0
       7 PROA 1    ADE  H4'  HN7    0.900000E-01   1.00800           0
       8 PROA 1    ADE  O4'  ON6B  -0.500000       15.9994           0
       9 PROA 1    ADE  C1'  CN7B   0.160000       12.0110           0
      10 PROA 1    ADE  H1'  HN7    0.900000E-01   1.00800           0
      11 PROA 1    ADE  N9   NN2   -0.500000E-01   14.0070           0
      12 PROA 1    ADE  C5   CN5    0.280000       12.0110           0
      13 PROA 1    ADE  N7   NN4   -0.710000       14.0070           0
      14 PROA 1    ADE  C8   CN4    0.340000       12.0110           0
      15 PROA 1    ADE  H8   HN3    0.120000       1.00800           0
      16 PROA 1    ADE  N1   NN3A  -0.740000       14.0070           0
      17 PROA 1    ADE  C2   CN4    0.500000       12.0110           0
      18 PROA 1    ADE  H2   HN3    0.130000       1.00800           0
      19 PROA 1    ADE  N3   NN3A  -0.750000       14.0070           0
      20 PROA 1    ADE  C4   CN5    0.430000       12.0110           0
      21 PROA 1    ADE  C6   CN2    0.460000       12.0110           0
      22 PROA 1    ADE  N6   NN1   -0.770000       14.0070           0
      23 PROA 1    ADE  H61  HN1    0.380000       1.00800           0
      24 PROA 1    ADE  H62  HN1    0.380000       1.00800           0
      25 PROA 1    ADE  C2'  CN7B   0.140000       12.0110           0
      26 PROA 1    ADE  H2'' HN7    0.900000E-01   1.00800           0
      27 PROA 1    ADE  O2'  ON5   -0.660000       15.9994           0
      28 PROA 1    ADE  H2'  HN5    0.430000       1.00800           0
      29 PROA 1    ADE  C3'  CN7    0.140000       12.0110           0
      30 PROA 1    ADE  H3'  HN7    0.900000E-01   1.00800           0
      31 PROA 1    ADE  O3'  ON5   -0.660000       15.9994           0
      32 PROA 1    ADE  H3T  HN5    0.430000       1.00800           0

      34 !NBOND: bonds
       1       2       2       3       3       6       6       8
       6      29       8       9       9      11       9      25
      11      20      11      14      20      19      17      16
      21      22      22      23      22      24      21      12
      12      13      25      29      25      27      27      28
      29      31       9      10      25      26      29      30
       6       7       3       4       3       5      14      15
      17      18      16      21      17      19      20      12
      13      14      31      32

      58 !NTHETA: angles
       1       2       3       2       3       4       2       3       5
       2       3       6       3       6       7       3       6       8
       3       6      29       4       3       5       4       3       6
       5       3       6       6       8       9       6      29      25
       6      29      30       6      29      31       7       6       8
       7       6      29       8       6      29       8       9      10
       8       9      11       8       9      25       9      11      14
       9      11      20       9      25      26       9      25      27
       9      25      29      10       9      11      10       9      25
      11       9      25      11      14      13      11      14      15
      11      20      12      11      20      19      12      13      14
      12      20      19      12      21      16      12      21      22
      13      12      20      13      12      21      13      14      15
      14      11      20      16      17      18      16      17      19
      16      21      22      17      16      21      17      19      20
      18      17      19      20      12      21      21      22      23
      21      22      24      23      22      24      25      27      28
      25      29      30      25      29      31      26      25      27
      26      25      29      27      25      29      29      31      32
      30      29      31

      89 !NPHI: dihedrals
       1       2       3       4       1       2       3       5
       1       2       3       6       2       3       6       7
       2       3       6       8       2       3       6      29
       3       6       8       9       3       6      29      25
       3       6      29      30       3       6      29      31
       4       3       6       7       4       3       6       8
       4       3       6      29       5       3       6       7
       5       3       6       8       5       3       6      29
       6       8       9      10       6       8       9      11
       6       8       9      25       6      29      25       9
       6      29      25      26       6      29      25      27
       6      29      31      32       7       6       8       9
       7       6      29      25       7       6      29      30
       7       6      29      31       8       6      29      25
       8       6      29      30       8       6      29      31
       8       9      11      14       8       9      11      20
       8       9      25      26       8       9      25      27
       8       9      25      29       9       8       6      29
       9      11      14      13       9      11      14      15
       9      11      20      12       9      11      20      19
       9      25      27      28       9      25      29      30
       9      25      29      31      10       9      11      14
      10       9      11      20      10       9      25      26
      10       9      25      27      10       9      25      29
      11       9      25      26      11       9      25      27
      11       9      25      29      11      14      13      12
      11      20      12      13      11      20      12      21
      11      20      19      17      12      13      14      15
      12      20      11      14      12      20      19      17
      12      21      16      17      12      21      22      23
      12      21      22      24      13      12      20      19
      13      12      21      16      13      12      21      22
      13      14      11      20      14      11       9      25
      14      11      20      19      14      13      12      20
      14      13      12      21      15      14      11      20
      16      17      19      20      16      21      12      20
      16      21      22      23      16      21      22      24
      17      16      21      22      18      17      16      21
      18      17      19      20      19      17      16      21
      19      20      12      21      20      11       9      25
      20      12      21      22      25      29      31      32
      26      25      27      28      26      25      29      30
      26      25      29      31      27      25      29      30
      27      25      29      31      28      27      25      29
      30      29      31      32

       2 !NIMPHI: impropers
      22      21      23      24      21      16      12      22

       5 !NDON: donors
       2       1      22      23      22      24      27      28
      31      32

       7 !NACC: acceptors
      19       0      13       0      16       0      27       0
      31       0       8       0       2       0

       0 !NNB

       0       0       0       0       0       0       0       0
       0       0       0       0       0       0       0       0
       0       0       0       0       0       0       0       0
       0       0       0       0       0       0       0       0

       5       0 !NGRP NST2
       0       1       0       5       1       0      10       1       0
      24       1       0      28       1       0

       0       0 !NUMLP NUMLPH

       0 !NCRTERM: cross-terms

