PSF CMAP XPLOR

       2 !NTITLE
* EXECUTING CHARMM SCRIPT FROM PYTHON                                           
*  DATE:     6/12/25     17:12:43      CREATED BY USER: raheelx                 

      30 !NATOM
       1 PROA 1    CYT  H5T  HN5    0.430000       1.00800           0
       2 PROA 1    CYT  O5'  ON5   -0.660000       15.9994           0
       3 PROA 1    CYT  C5'  CN8B   0.500000E-01   12.0110           0
       4 PROA 1    CYT  H5'  HN8    0.900000E-01   1.00800           0
       5 PROA 1    CYT  H5'' HN8    0.900000E-01   1.00800           0
       6 PROA 1    CYT  C4'  CN7    0.160000       12.0110           0
       7 PROA 1    CYT  H4'  HN7    0.900000E-01   1.00800           0
       8 PROA 1    CYT  O4'  ON6B  -0.500000       15.9994           0
       9 PROA 1    CYT  C1'  CN7B   0.160000       12.0110           0
      10 PROA 1    CYT  H1'  HN7    0.900000E-01   1.00800           0
      11 PROA 1    CYT  N1   NN2   -0.130000       14.0070           0
      12 PROA 1    CYT  C6   CN3    0.500000E-01   12.0110           0
      13 PROA 1    CYT  H6   HN3    0.170000       1.00800           0
      14 PROA 1    CYT  C5   CN3   -0.130000       12.0110           0
      15 PROA 1    CYT  H5   HN3    0.700000E-01   1.00800           0
      16 PROA 1    CYT  C2   CN1    0.520000       12.0110           0
      17 PROA 1    CYT  O2   ON1C  -0.490000       15.9994           0
      18 PROA 1    CYT  N3   NN3   -0.660000       14.0070           0
      19 PROA 1    CYT  C4   CN2    0.650000       12.0110           0
      20 PROA 1    CYT  N4   NN1   -0.750000       14.0070           0
      21 PROA 1    CYT  H41  HN1    0.370000       1.00800           0
      22 PROA 1    CYT  H42  HN1    0.330000       1.00800           0
      23 PROA 1    CYT  C2'  CN7B   0.140000       12.0110           0
      24 PROA 1    CYT  H2'' HN7    0.900000E-01   1.00800           0
      25 PROA 1    CYT  O2'  ON5   -0.660000       15.9994           0
      26 PROA 1    CYT  H2'  HN5    0.430000       1.00800           0
      27 PROA 1    CYT  C3'  CN7    0.140000       12.0110           0
      28 PROA 1    CYT  H3'  HN7    0.900000E-01   1.00800           0
      29 PROA 1    CYT  O3'  ON5   -0.660000       15.9994           0
      30 PROA 1    CYT  H3T  HN5    0.430000       1.00800           0

      31 !NBOND: bonds
       1       2       2       3       3       6       6       8
       6      27       8       9       9      11       9      23
      11      16      11      12      16      18      19      20
      20      21      20      22      19      14      23      27
      27      29      23      25      25      26       9      10
      23      24      27      28       6       7       3       4
       3       5      14      15      12      13      16      17
      14      12      18      19      29      30

      53 !NTHETA: angles
       1       2       3       2       3       4       2       3       5
       2       3       6       3       6       7       3       6       8
       3       6      27       4       3       5       4       3       6
       5       3       6       6       8       9       6      27      23
       6      27      28       6      27      29       7       6       8
       7       6      27       8       6      27       8       9      10
       8       9      11       8       9      23       9      11      12
       9      11      16       9      23      24       9      23      25
       9      23      27      10       9      11      10       9      23
      11       9      23      11      12      13      11      12      14
      11      16      17      11      16      18      12      11      16
      12      14      15      12      14      19      13      12      14
      14      19      18      14      19      20      15      14      19
      16      18      19      17      16      18      18      19      20
      19      20      21      19      20      22      21      20      22
      23      25      26      23      27      28      23      27      29
      24      23      25      24      23      27      25      23      27
      27      29      30      28      27      29

      81 !NPHI: dihedrals
       1       2       3       4       1       2       3       5
       1       2       3       6       2       3       6       7
       2       3       6       8       2       3       6      27
       3       6       8       9       3       6      27      23
       3       6      27      28       3       6      27      29
       4       3       6       7       4       3       6       8
       4       3       6      27       5       3       6       7
       5       3       6       8       5       3       6      27
       6       8       9      10       6       8       9      11
       6       8       9      23       6      27      23       9
       6      27      23      24       6      27      23      25
       6      27      29      30       7       6       8       9
       7       6      27      23       7       6      27      28
       7       6      27      29       8       6      27      23
       8       6      27      28       8       6      27      29
       8       9      11      12       8       9      11      16
       8       9      23      24       8       9      23      25
       8       9      23      27       9       8       6      27
       9      11      12      13       9      11      12      14
       9      11      16      17       9      11      16      18
       9      23      25      26       9      23      27      28
       9      23      27      29      10       9      11      12
      10       9      11      16      10       9      23      24
      10       9      23      25      10       9      23      27
      11       9      23      24      11       9      23      25
      11       9      23      27      11      12      14      15
      11      12      14      19      11      16      18      19
      12      11       9      23      12      11      16      17
      12      11      16      18      12      14      19      18
      12      14      19      20      13      12      11      16
      13      12      14      15      13      12      14      19
      14      12      11      16      14      19      18      16
      14      19      20      21      14      19      20      22
      15      14      19      18      15      14      19      20
      16      11       9      23      16      18      19      20
      17      16      18      19      18      19      20      21
      18      19      20      22      23      27      29      30
      24      23      25      26      24      23      27      28
      24      23      27      29      25      23      27      28
      25      23      27      29      26      25      23      27
      28      27      29      30

       3 !NIMPHI: impropers
      16      11      18      17      19      18      14      20
      20      19      21      22

       5 !NDON: donors
       2       1      20      22      25      26      20      21
      29      30

       6 !NACC: acceptors
      17      16      18       0      25       0      29       0
       8       0       2       0

       0 !NNB

       0       0       0       0       0       0       0       0
       0       0       0       0       0       0       0       0
       0       0       0       0       0       0       0       0
       0       0       0       0       0       0

       5       0 !NGRP NST2
       0       1       0       5       1       0      10       1       0
      22       1       0      26       1       0

       0       0 !NUMLP NUMLPH

       0 !NCRTERM: cross-terms

