* EXECUTING CHARMM SCRIPT FROM PYTHON
*  DATE:     6/12/25     17:12:43      CREATED BY USER: raheelx
*
   30
    1    1 CYT  H5T    0.68367   3.09890  -0.46806 PROA 1      0.00000
    2    1 CYT  O5'    0.81977   2.15332  -0.37348 PROA 1      0.00000
    3    1 CYT  C5'    1.81070   1.99629   0.65962 PROA 1      0.00000
    4    1 CYT  H5'    1.39069   2.36478   1.61989 PROA 1      0.00000
    5    1 CYT  H5''   2.76999   2.43199   0.30710 PROA 1      0.00000
    6    1 CYT  C4'    2.07591   0.51752   0.86254 PROA 1      0.00000
    7    1 CYT  H4'    2.77347   0.35015   1.71091 PROA 1      0.00000
    8    1 CYT  O4'    0.82519  -0.15324   1.19302 PROA 1      0.00000
    9    1 CYT  C1'    0.68076  -0.88891   0.41588 PROA 1      0.00000
   10    1 CYT  H1'    1.03721  -1.78736   0.96366 PROA 1      0.00000
   11    1 CYT  N1    -0.79308  -0.68442   0.34597 PROA 1      0.00000
   12    1 CYT  C6    -1.16586   0.37571  -0.42711 PROA 1      0.00000
   13    1 CYT  H6    -0.36662   0.94652  -0.89986 PROA 1      0.00000
   14    1 CYT  C5    -2.45524   0.68983  -0.58957 PROA 1      0.00000
   15    1 CYT  H5    -2.77769   1.53182  -1.20208 PROA 1      0.00000
   16    1 CYT  C2    -1.74127  -1.45859   0.97947 PROA 1      0.00000
   17    1 CYT  O2    -1.37426  -2.41390   1.67435 PROA 1      0.00000
   18    1 CYT  N3    -3.05201  -1.14908   0.82167 PROA 1      0.00000
   19    1 CYT  C4    -3.40539  -0.11005   0.06331 PROA 1      0.00000
   20    1 CYT  N4    -4.70400   0.17536  -0.07713 PROA 1      0.00000
   21    1 CYT  H41   -5.38464  -0.40290   0.39450 PROA 1      0.00000
   22    1 CYT  H42   -5.00198   0.95574  -0.64487 PROA 1      0.00000
   23    1 CYT  C2'    1.34429  -0.79337  -0.86984 PROA 1      0.00000
   24    1 CYT  H2''   0.84175  -0.04862  -1.52339 PROA 1      0.00000
   25    1 CYT  O2'    1.54857  -2.08650  -1.42292 PROA 1      0.00000
   26    1 CYT  H2'    0.80005  -2.68274  -1.34669 PROA 1      0.00000
   27    1 CYT  C3'    2.59602  -0.24565  -0.35526 PROA 1      0.00000
   28    1 CYT  H3'    3.00944   0.49443  -1.07337 PROA 1      0.00000
   29    1 CYT  O3'    3.60643  -1.20615  -0.07900 PROA 1      0.00000
   30    1 CYT  H3T    3.60814  -1.97090  -0.65929 PROA 1      0.00000
