* EXECUTING CHARMM SCRIPT FROM PYTHON
*  DATE:     6/12/25     17:14:10      CREATED BY USER: raheelx
*
   67
    1    1 ALA  CAY  -10.17323  -2.22416   0.34929 PROA 1      0.00000
    2    1 ALA  HY1  -10.71527  -1.55477   1.05102 PROA 1      0.00000
    3    1 ALA  HY2   -9.86194  -3.14675   0.88432 PROA 1      0.00000
    4    1 ALA  HY3  -10.84247  -2.49445  -0.49532 PROA 1      0.00000
    5    1 ALA  CY    -8.96790  -1.52310  -0.17589 PROA 1      0.00000
    6    1 ALA  OY    -8.21177  -2.07459  -0.97402 PROA 1      0.00000
    7    1 ALA  N     -8.76062  -0.27080   0.26888 PROA 1      0.00000
    8    1 ALA  HN    -9.36850   0.18332   0.91561 PROA 1      0.00000
    9    1 ALA  CA    -7.62617   0.47112  -0.18661 PROA 1      0.00000
   10    1 ALA  HA    -7.59375   0.55752  -1.26668 PROA 1      0.00000
   11    1 ALA  CB    -7.58615   1.90605   0.38767 PROA 1      0.00000
   12    1 ALA  HB1   -8.47477   2.47283   0.03667 PROA 1      0.00000
   13    1 ALA  HB2   -7.60673   1.89206   1.49929 PROA 1      0.00000
   14    1 ALA  HB3   -6.67726   2.45387   0.05747 PROA 1      0.00000
   15    1 ALA  C     -6.41399  -0.29916   0.21013 PROA 1      0.00000
   16    1 ALA  O     -6.47845  -1.36734   0.81592 PROA 1      0.00000
   17    2 ALA  N     -5.21332   0.23191  -0.12830 PROA 2      0.00000
   18    2 ALA  HN    -5.21025   1.10208  -0.62022 PROA 2      0.00000
   19    2 ALA  CA    -3.89593  -0.33567   0.15052 PROA 2      0.00000
   20    2 ALA  HA    -3.76703  -0.41883   1.22361 PROA 2      0.00000
   21    2 ALA  CB    -3.84807  -1.76884  -0.42755 PROA 2      0.00000
   22    2 ALA  HB1   -4.67966  -2.37019  -0.00220 PROA 2      0.00000
   23    2 ALA  HB2   -3.96500  -1.75761  -1.53323 PROA 2      0.00000
   24    2 ALA  HB3   -2.89286  -2.27919  -0.17794 PROA 2      0.00000
   25    2 ALA  C     -2.71682   0.50880  -0.36435 PROA 2      0.00000
   26    2 ALA  O     -2.87608   1.57249  -0.96048 PROA 2      0.00000
   27    3 GLU  N     -1.47110   0.02690  -0.13167 PROA 3      0.00000
   28    3 GLU  HN    -1.36625  -0.83688   0.35320 PROA 3      0.00000
   29    3 GLU  CA    -0.20650   0.64638  -0.52210 PROA 3      0.00000
   30    3 GLU  HA    -0.13813   0.69716  -1.60155 PROA 3      0.00000
   31    3 GLU  CB    -0.07787   2.07327   0.07364 PROA 3      0.00000
   32    3 GLU  HB1   -0.93686   2.68145  -0.29291 PROA 3      0.00000
   33    3 GLU  HB2   -0.18463   2.03084   1.18079 PROA 3      0.00000
   34    3 GLU  CG     1.23320   2.83431  -0.27579 PROA 3      0.00000
   35    3 GLU  HG1    2.09922   2.28726   0.13946 PROA 3      0.00000
   36    3 GLU  HG2    1.35538   2.93191  -1.37280 PROA 3      0.00000
   37    3 GLU  CD     1.36105   4.24209   0.31146 PROA 3      0.00000
   38    3 GLU  OE1    2.42709   4.84517   0.02002 PROA 3      0.00000
   39    3 GLU  OE2    0.45025   4.70505   1.03714 PROA 3      0.00000
   40    3 GLU  C      0.91139  -0.26714  -0.04140 PROA 3      0.00000
   41    3 GLU  O      0.66350  -1.31310   0.55768 PROA 3      0.00000
   42    4 ALA  N      2.17915   0.11859  -0.29982 PROA 4      0.00000
   43    4 ALA  HN     2.35654   0.97257  -0.78814 PROA 4      0.00000
   44    4 ALA  CA     3.35945  -0.63469   0.08833 PROA 4      0.00000
   45    4 ALA  HA     3.38202  -0.72419   1.16839 PROA 4      0.00000
   46    4 ALA  CB     3.23803  -2.06503  -0.48595 PROA 4      0.00000
   47    4 ALA  HB1    2.29139  -2.52843  -0.13490 PROA 4      0.00000
   48    4 ALA  HB2    3.21910  -2.04881  -1.59757 PROA 4      0.00000
   49    4 ALA  HB3    4.07966  -2.71147  -0.15580 PROA 4      0.00000
   50    4 ALA  C      4.69290   0.01527  -0.32153 PROA 4      0.00000
   51    4 ALA  O      4.74879   1.08394  -0.92732 PROA 4      0.00000
   52    5 ALA  N      5.82636  -0.64728   0.01684 PROA 5      0.00000
   53    5 ALA  HN     5.73170  -1.51230   0.50876 PROA 5      0.00000
   54    5 ALA  CA     7.19914  -0.23125  -0.26205 PROA 5      0.00000
   55    5 ALA  HA     7.33651  -0.16309  -1.33515 PROA 5      0.00000
   56    5 ALA  CB     7.40768   1.18747   0.31601 PROA 5      0.00000
   57    5 ALA  HB1    6.64887   1.87842  -0.10930 PROA 5      0.00000
   58    5 ALA  HB2    7.29029   1.18944   1.42170 PROA 5      0.00000
   59    5 ALA  HB3    8.41416   1.58732   0.06635 PROA 5      0.00000
   60    5 ALA  C      8.27597  -1.20280   0.25276 PROA 5      0.00000
   61    5 ALA  O      7.96655  -2.23492   0.84597 PROA 5      0.00000
   62    5 ALA  NT     9.55520  -0.85991   0.01819 PROA 5      0.00000
   63    5 ALA  HNT    9.81442  -0.02536  -0.46176 PROA 5      0.00000
   64    5 ALA  CAT   10.61622  -1.70862   0.46408 PROA 5      0.00000
   65    5 ALA  HT1   10.51548  -2.70841  -0.00984 PROA 5      0.00000
   66    5 ALA  HT2   11.59291  -1.26157   0.18028 PROA 5      0.00000
   67    5 ALA  HT3   10.56578  -1.81621   1.56870 PROA 5      0.00000
