PSF CMAP XPLOR

       2 !NTITLE
* EXECUTING CHARMM SCRIPT FROM PYTHON                                           
*  DATE:     6/12/25     17:14:10      CREATED BY USER: raheelx                 

      67 !NATOM
       1 PROA 1    ALA  CAY  CT3   -0.270000       12.0110           0
       2 PROA 1    ALA  HY1  HA3    0.900000E-01   1.00800           0
       3 PROA 1    ALA  HY2  HA3    0.900000E-01   1.00800           0
       4 PROA 1    ALA  HY3  HA3    0.900000E-01   1.00800           0
       5 PROA 1    ALA  CY   C      0.510000       12.0110           0
       6 PROA 1    ALA  OY   O     -0.510000       15.9994           0
       7 PROA 1    ALA  N    NH1   -0.470000       14.0070           0
       8 PROA 1    ALA  HN   H      0.310000       1.00800           0
       9 PROA 1    ALA  CA   CT1    0.700000E-01   12.0110           0
      10 PROA 1    ALA  HA   HB1    0.900000E-01   1.00800           0
      11 PROA 1    ALA  CB   CT3   -0.270000       12.0110           0
      12 PROA 1    ALA  HB1  HA3    0.900000E-01   1.00800           0
      13 PROA 1    ALA  HB2  HA3    0.900000E-01   1.00800           0
      14 PROA 1    ALA  HB3  HA3    0.900000E-01   1.00800           0
      15 PROA 1    ALA  C    C      0.510000       12.0110           0
      16 PROA 1    ALA  O    O     -0.510000       15.9994           0
      17 PROA 2    ALA  N    NH1   -0.470000       14.0070           0
      18 PROA 2    ALA  HN   H      0.310000       1.00800           0
      19 PROA 2    ALA  CA   CT1    0.700000E-01   12.0110           0
      20 PROA 2    ALA  HA   HB1    0.900000E-01   1.00800           0
      21 PROA 2    ALA  CB   CT3   -0.270000       12.0110           0
      22 PROA 2    ALA  HB1  HA3    0.900000E-01   1.00800           0
      23 PROA 2    ALA  HB2  HA3    0.900000E-01   1.00800           0
      24 PROA 2    ALA  HB3  HA3    0.900000E-01   1.00800           0
      25 PROA 2    ALA  C    C      0.510000       12.0110           0
      26 PROA 2    ALA  O    O     -0.510000       15.9994           0
      27 PROA 3    GLU  N    NH1   -0.470000       14.0070           0
      28 PROA 3    GLU  HN   H      0.310000       1.00800           0
      29 PROA 3    GLU  CA   CT1    0.700000E-01   12.0110           0
      30 PROA 3    GLU  HA   HB1    0.900000E-01   1.00800           0
      31 PROA 3    GLU  CB   CT2A  -0.180000       12.0110           0
      32 PROA 3    GLU  HB1  HA2    0.900000E-01   1.00800           0
      33 PROA 3    GLU  HB2  HA2    0.900000E-01   1.00800           0
      34 PROA 3    GLU  CG   CT2   -0.280000       12.0110           0
      35 PROA 3    GLU  HG1  HA2    0.900000E-01   1.00800           0
      36 PROA 3    GLU  HG2  HA2    0.900000E-01   1.00800           0
      37 PROA 3    GLU  CD   CC     0.620000       12.0110           0
      38 PROA 3    GLU  OE1  OC    -0.760000       15.9994           0
      39 PROA 3    GLU  OE2  OC    -0.760000       15.9994           0
      40 PROA 3    GLU  C    C      0.510000       12.0110           0
      41 PROA 3    GLU  O    O     -0.510000       15.9994           0
      42 PROA 4    ALA  N    NH1   -0.470000       14.0070           0
      43 PROA 4    ALA  HN   H      0.310000       1.00800           0
      44 PROA 4    ALA  CA   CT1    0.700000E-01   12.0110           0
      45 PROA 4    ALA  HA   HB1    0.900000E-01   1.00800           0
      46 PROA 4    ALA  CB   CT3   -0.270000       12.0110           0
      47 PROA 4    ALA  HB1  HA3    0.900000E-01   1.00800           0
      48 PROA 4    ALA  HB2  HA3    0.900000E-01   1.00800           0
      49 PROA 4    ALA  HB3  HA3    0.900000E-01   1.00800           0
      50 PROA 4    ALA  C    C      0.510000       12.0110           0
      51 PROA 4    ALA  O    O     -0.510000       15.9994           0
      52 PROA 5    ALA  N    NH1   -0.470000       14.0070           0
      53 PROA 5    ALA  HN   H      0.310000       1.00800           0
      54 PROA 5    ALA  CA   CT1    0.700000E-01   12.0110           0
      55 PROA 5    ALA  HA   HB1    0.900000E-01   1.00800           0
      56 PROA 5    ALA  CB   CT3   -0.270000       12.0110           0
      57 PROA 5    ALA  HB1  HA3    0.900000E-01   1.00800           0
      58 PROA 5    ALA  HB2  HA3    0.900000E-01   1.00800           0
      59 PROA 5    ALA  HB3  HA3    0.900000E-01   1.00800           0
      60 PROA 5    ALA  C    C      0.510000       12.0110           0
      61 PROA 5    ALA  O    O     -0.510000       15.9994           0
      62 PROA 5    ALA  NT   NH1   -0.470000       14.0070           0
      63 PROA 5    ALA  HNT  H      0.310000       1.00800           0
      64 PROA 5    ALA  CAT  CT3   -0.110000       12.0110           0
      65 PROA 5    ALA  HT1  HA3    0.900000E-01   1.00800           0
      66 PROA 5    ALA  HT2  HA3    0.900000E-01   1.00800           0
      67 PROA 5    ALA  HT3  HA3    0.900000E-01   1.00800           0

      66 !NBOND: bonds
       5       1       5       7       1       2       1       3
       1       4       6       5      11       9       7       8
       7       9      15       9      15      17       9      10
      11      12      11      13      11      14      16      15
      21      19      17      18      17      19      25      19
      25      27      19      20      21      22      21      23
      21      24      26      25      31      29      34      31
      37      34      39      37      27      28      27      29
      40      29      40      42      29      30      31      32
      31      33      34      35      34      36      41      40
      37      38      46      44      42      43      42      44
      50      44      50      52      44      45      46      47
      46      48      46      49      51      50      56      54
      52      53      52      54      60      54      54      55
      56      57      56      58      56      59      61      60
      60      62      62      63      62      64      64      65
      64      66      64      67

     117 !NTHETA: angles
       1       5       6       1       5       7       2       1       3
       2       1       4       2       1       5       3       1       4
       3       1       5       4       1       5       5       7       8
       5       7       9       6       5       7       7       9      10
       7       9      11       7       9      15       8       7       9
       9      11      12       9      11      13       9      11      14
       9      15      16       9      15      17      10       9      11
      10       9      15      11       9      15      12      11      13
      12      11      14      13      11      14      15      17      18
      15      17      19      16      15      17      17      19      20
      17      19      21      17      19      25      18      17      19
      19      21      22      19      21      23      19      21      24
      19      25      26      19      25      27      20      19      21
      20      19      25      21      19      25      22      21      23
      22      21      24      23      21      24      25      27      28
      25      27      29      26      25      27      27      29      30
      27      29      31      27      29      40      28      27      29
      29      31      32      29      31      33      29      31      34
      29      40      41      29      40      42      30      29      31
      30      29      40      31      29      40      31      34      35
      31      34      36      31      34      37      32      31      33
      32      31      34      33      31      34      34      37      38
      34      37      39      35      34      36      35      34      37
      36      34      37      38      37      39      40      42      43
      40      42      44      41      40      42      42      44      45
      42      44      46      42      44      50      43      42      44
      44      46      47      44      46      48      44      46      49
      44      50      51      44      50      52      45      44      46
      45      44      50      46      44      50      47      46      48
      47      46      49      48      46      49      50      52      53
      50      52      54      51      50      52      52      54      55
      52      54      56      52      54      60      53      52      54
      54      56      57      54      56      58      54      56      59
      54      60      61      54      60      62      55      54      56
      55      54      60      56      54      60      57      56      58
      57      56      59      58      56      59      60      62      63
      60      62      64      61      60      62      62      64      65
      62      64      66      62      64      67      63      62      64
      65      64      66      65      64      67      66      64      67

     156 !NPHI: dihedrals
       1       5       7       8       1       5       7       9
       2       1       5       6       2       1       5       7
       3       1       5       6       3       1       5       7
       4       1       5       6       4       1       5       7
       5       7       9      10       5       7       9      11
       5       7       9      15       6       5       7       8
       6       5       7       9       7       9      11      12
       7       9      11      13       7       9      11      14
       7       9      15      16       7       9      15      17
       8       7       9      10       8       7       9      11
       8       7       9      15       9      15      17      18
       9      15      17      19      10       9      11      12
      10       9      11      13      10       9      11      14
      10       9      15      16      10       9      15      17
      11       9      15      16      11       9      15      17
      12      11       9      15      13      11       9      15
      14      11       9      15      15      17      19      20
      15      17      19      21      15      17      19      25
      16      15      17      18      16      15      17      19
      17      19      21      22      17      19      21      23
      17      19      21      24      17      19      25      26
      17      19      25      27      18      17      19      20
      18      17      19      21      18      17      19      25
      19      25      27      28      19      25      27      29
      20      19      21      22      20      19      21      23
      20      19      21      24      20      19      25      26
      20      19      25      27      21      19      25      26
      21      19      25      27      22      21      19      25
      23      21      19      25      24      21      19      25
      25      27      29      30      25      27      29      31
      25      27      29      40      26      25      27      28
      26      25      27      29      27      29      31      32
      27      29      31      33      27      29      31      34
      27      29      40      41      27      29      40      42
      28      27      29      30      28      27      29      31
      28      27      29      40      29      31      34      35
      29      31      34      36      29      31      34      37
      29      40      42      43      29      40      42      44
      30      29      31      32      30      29      31      33
      30      29      31      34      30      29      40      41
      30      29      40      42      31      29      40      41
      31      29      40      42      31      34      37      38
      31      34      37      39      32      31      29      40
      32      31      34      35      32      31      34      36
      32      31      34      37      33      31      29      40
      33      31      34      35      33      31      34      36
      33      31      34      37      34      31      29      40
      35      34      37      38      35      34      37      39
      36      34      37      38      36      34      37      39
      40      42      44      45      40      42      44      46
      40      42      44      50      41      40      42      43
      41      40      42      44      42      44      46      47
      42      44      46      48      42      44      46      49
      42      44      50      51      42      44      50      52
      43      42      44      45      43      42      44      46
      43      42      44      50      44      50      52      53
      44      50      52      54      45      44      46      47
      45      44      46      48      45      44      46      49
      45      44      50      51      45      44      50      52
      46      44      50      51      46      44      50      52
      47      46      44      50      48      46      44      50
      49      46      44      50      50      52      54      55
      50      52      54      56      50      52      54      60
      51      50      52      53      51      50      52      54
      52      54      56      57      52      54      56      58
      52      54      56      59      52      54      60      61
      52      54      60      62      53      52      54      55
      53      52      54      56      53      52      54      60
      54      60      62      63      54      60      62      64
      55      54      56      57      55      54      56      58
      55      54      56      59      55      54      60      61
      55      54      60      62      56      54      60      61
      56      54      60      62      57      56      54      60
      58      56      54      60      59      56      54      60
      60      62      64      65      60      62      64      66
      60      62      64      67      61      60      62      63
      61      60      62      64      63      62      64      65
      63      62      64      66      63      62      64      67

      13 !NIMPHI: impropers
       5       1       7       6       7       5       9       8
      15       9      17      16      17      15      19      18
      25      19      27      26      27      25      29      28
      40      29      42      41      37      34      39      38
      42      40      44      43      50      44      52      51
      52      50      54      53      62      60      64      63
      60      54      62      61

       6 !NDON: donors
       7       8      17      18      27      28      42      43
      52      53      62      63

       8 !NACC: acceptors
       6       5      16      15      26      25      38      37
      39      37      41      40      51      50      61      60

       0 !NNB

       0       0       0       0       0       0       0       0
       0       0       0       0       0       0       0       0
       0       0       0       0       0       0       0       0
       0       0       0       0       0       0       0       0
       0       0       0       0       0       0       0       0
       0       0       0       0       0       0       0       0
       0       0       0       0       0       0       0       0
       0       0       0       0       0       0       0       0
       0       0       0

      19       0 !NGRP NST2
       0       1       0       4       1       0       6       1       0
      10       1       0      14       1       0      16       1       0
      20       1       0      24       1       0      26       1       0
      30       1       0      33       2       0      39       1       0
      41       1       0      45       1       0      49       1       0
      51       1       0      55       1       0      59       1       0
      61       1       0

       0       0 !NUMLP NUMLPH

       5 !NCRTERM: cross-terms
       5       7       9      15       7       9      15      17
      15      17      19      25      17      19      25      27
      25      27      29      40      27      29      40      42
      40      42      44      50      42      44      50      52
      50      52      54      60      52      54      60      62
