PSF CMAP XPLOR

       2 !NTITLE
* EXECUTING CHARMM SCRIPT FROM PYTHON                                           
*  DATE:     6/12/25     17:12:43      CREATED BY USER: raheelx                 

      33 !NATOM
       1 PROA 1    GUA  H5T  HN5    0.430000       1.00800           0
       2 PROA 1    GUA  O5'  ON5   -0.660000       15.9994           0
       3 PROA 1    GUA  C5'  CN8B   0.500000E-01   12.0110           0
       4 PROA 1    GUA  H5'  HN8    0.900000E-01   1.00800           0
       5 PROA 1    GUA  H5'' HN8    0.900000E-01   1.00800           0
       6 PROA 1    GUA  C4'  CN7    0.160000       12.0110           0
       7 PROA 1    GUA  H4'  HN7    0.900000E-01   1.00800           0
       8 PROA 1    GUA  O4'  ON6B  -0.500000       15.9994           0
       9 PROA 1    GUA  C1'  CN7B   0.160000       12.0110           0
      10 PROA 1    GUA  H1'  HN7    0.900000E-01   1.00800           0
      11 PROA 1    GUA  N9   NN2B  -0.200000E-01   14.0070           0
      12 PROA 1    GUA  C4   CN5    0.260000       12.0110           0
      13 PROA 1    GUA  N2   NN1   -0.680000       14.0070           0
      14 PROA 1    GUA  H21  HN1    0.320000       1.00800           0
      15 PROA 1    GUA  H22  HN1    0.350000       1.00800           0
      16 PROA 1    GUA  N3   NN3G  -0.740000       14.0070           0
      17 PROA 1    GUA  C2   CN2    0.750000       12.0110           0
      18 PROA 1    GUA  N1   NN2G  -0.340000       14.0070           0
      19 PROA 1    GUA  H1   HN2    0.260000       1.00800           0
      20 PROA 1    GUA  C6   CN1    0.540000       12.0110           0
      21 PROA 1    GUA  O6   ON1   -0.510000       15.9994           0
      22 PROA 1    GUA  C5   CN5G    0.00000       12.0110           0
      23 PROA 1    GUA  N7   NN4   -0.600000       14.0070           0
      24 PROA 1    GUA  C8   CN4    0.250000       12.0110           0
      25 PROA 1    GUA  H8   HN3    0.160000       1.00800           0
      26 PROA 1    GUA  C2'  CN7B   0.140000       12.0110           0
      27 PROA 1    GUA  H2'' HN7    0.900000E-01   1.00800           0
      28 PROA 1    GUA  O2'  ON5   -0.660000       15.9994           0
      29 PROA 1    GUA  H2'  HN5    0.430000       1.00800           0
      30 PROA 1    GUA  C3'  CN7    0.140000       12.0110           0
      31 PROA 1    GUA  H3'  HN7    0.900000E-01   1.00800           0
      32 PROA 1    GUA  O3'  ON5   -0.660000       15.9994           0
      33 PROA 1    GUA  H3T  HN5    0.430000       1.00800           0

      35 !NBOND: bonds
       1       2       2       3       3       6       6       8
       6      30       8       9       9      11       9      26
      11      12      11      24      12      16      17      13
      17      18      13      14      13      15      18      19
      18      20      20      22      22      23      26      30
      30      32      26      28      28      29       9      10
      26      27      30      31       6       7       3       4
       3       5      24      25      17      16      12      22
      23      24      20      21      32      33

      60 !NTHETA: angles
       1       2       3       2       3       4       2       3       5
       2       3       6       3       6       7       3       6       8
       3       6      30       4       3       5       4       3       6
       5       3       6       6       8       9       6      30      26
       6      30      31       6      30      32       7       6       8
       7       6      30       8       6      30       8       9      10
       8       9      11       8       9      26       9      11      12
       9      11      24       9      26      27       9      26      28
       9      26      30      10       9      11      10       9      26
      11       9      26      11      12      16      11      12      22
      11      24      23      11      24      25      12      11      24
      12      16      17      12      22      20      12      22      23
      13      17      16      13      17      18      14      13      15
      14      13      17      15      13      17      16      12      22
      16      17      18      17      18      19      17      18      20
      18      20      21      18      20      22      19      18      20
      20      22      23      21      20      22      22      23      24
      23      24      25      26      28      29      26      30      31
      26      30      32      27      26      28      27      26      30
      28      26      30      30      32      33      31      30      32

      93 !NPHI: dihedrals
       1       2       3       4       1       2       3       5
       1       2       3       6       2       3       6       7
       2       3       6       8       2       3       6      30
       3       6       8       9       3       6      30      26
       3       6      30      31       3       6      30      32
       4       3       6       7       4       3       6       8
       4       3       6      30       5       3       6       7
       5       3       6       8       5       3       6      30
       6       8       9      10       6       8       9      11
       6       8       9      26       6      30      26       9
       6      30      26      27       6      30      26      28
       6      30      32      33       7       6       8       9
       7       6      30      26       7       6      30      31
       7       6      30      32       8       6      30      26
       8       6      30      31       8       6      30      32
       8       9      11      12       8       9      11      24
       8       9      26      27       8       9      26      28
       8       9      26      30       9       8       6      30
       9      11      12      16       9      11      12      22
       9      11      24      23       9      11      24      25
       9      26      28      29       9      26      30      31
       9      26      30      32      10       9      11      12
      10       9      11      24      10       9      26      27
      10       9      26      28      10       9      26      30
      11       9      26      27      11       9      26      28
      11       9      26      30      11      12      16      17
      11      12      22      20      11      12      22      23
      11      24      23      22      12      11       9      26
      12      11      24      23      12      11      24      25
      12      16      17      13      12      16      17      18
      12      22      20      18      12      22      20      21
      12      22      23      24      13      17      18      19
      13      17      18      20      14      13      17      16
      14      13      17      18      15      13      17      16
      15      13      17      18      16      12      11      24
      16      12      22      20      16      12      22      23
      16      17      18      19      16      17      18      20
      17      16      12      22      17      18      20      21
      17      18      20      22      18      20      22      23
      19      18      20      21      19      18      20      22
      20      22      23      24      21      20      22      23
      22      12      11      24      22      23      24      25
      24      11       9      26      26      30      32      33
      27      26      28      29      27      26      30      31
      27      26      30      32      28      26      30      31
      28      26      30      32      29      28      26      30
      31      30      32      33

       3 !NIMPHI: impropers
      17      16      18      13      20      18      22      21
      13      14      17      15

       6 !NDON: donors
       2       1      13      14      13      15      18      19
      28      29      32      33

       7 !NACC: acceptors
      21      20      16       0      23       0      28       0
      32       0       8       0       2       0

       0 !NNB

       0       0       0       0       0       0       0       0
       0       0       0       0       0       0       0       0
       0       0       0       0       0       0       0       0
       0       0       0       0       0       0       0       0
       0

       5       0 !NGRP NST2
       0       1       0       5       1       0      10       1       0
      25       1       0      29       1       0

       0       0 !NUMLP NUMLPH

       0 !NCRTERM: cross-terms

