* EXECUTING CHARMM SCRIPT FROM PYTHON
*  DATE:     6/12/25     17:14:10      CREATED BY USER: raheelx
*
   70
    1    1 ALA  CAY  -10.53260  -1.97181   0.02815 PROA 1      0.00000
    2    1 ALA  HY1  -11.05653  -1.36856   0.80010 PROA 1      0.00000
    3    1 ALA  HY2  -10.28836  -2.97273   0.44386 PROA 1      0.00000
    4    1 ALA  HY3  -11.19140  -2.09037  -0.85856 PROA 1      0.00000
    5    1 ALA  CY    -9.27575  -1.28045  -0.37491 PROA 1      0.00000
    6    1 ALA  OY    -8.52886  -1.76705  -1.22242 PROA 1      0.00000
    7    1 ALA  N     -9.01215  -0.11087   0.23470 PROA 1      0.00000
    8    1 ALA  HN    -9.61215   0.29032   0.92250 PROA 1      0.00000
    9    1 ALA  CA    -7.82576   0.61604  -0.09542 PROA 1      0.00000
   10    1 ALA  HA    -7.75775   0.83993  -1.15386 PROA 1      0.00000
   11    1 ALA  CB    -7.72267   1.95940   0.66300 PROA 1      0.00000
   12    1 ALA  HB1   -8.56812   2.61814   0.37080 PROA 1      0.00000
   13    1 ALA  HB2   -7.77575   1.80239   1.76248 PROA 1      0.00000
   14    1 ALA  HB3   -6.77575   2.49116   0.42683 PROA 1      0.00000
   15    1 ALA  C     -6.66999  -0.26905   0.22222 PROA 1      0.00000
   16    1 ALA  O     -6.81085  -1.40122   0.68103 PROA 1      0.00000
   17    2 ALA  N     -5.43253   0.23007  -0.01816 PROA 2      0.00000
   18    2 ALA  HN    -5.36717   1.15506  -0.39140 PROA 2      0.00000
   19    2 ALA  CA    -4.15715  -0.44526   0.21144 PROA 2      0.00000
   20    2 ALA  HA    -4.06377  -0.67450   1.26680 PROA 2      0.00000
   21    2 ALA  CB    -4.17232  -1.79153  -0.54865 PROA 2      0.00000
   22    2 ALA  HB1   -5.04779  -2.39318  -0.22356 PROA 2      0.00000
   23    2 ALA  HB2   -4.25681  -1.62996  -1.64550 PROA 2      0.00000
   24    2 ALA  HB3   -3.25439  -2.38517  -0.34812 PROA 2      0.00000
   25    2 ALA  C     -2.91880   0.38824  -0.16312 PROA 2      0.00000
   26    2 ALA  O     -3.00175   1.52784  -0.61766 PROA 2      0.00000
   27    3 HSP  N     -1.70887  -0.19208   0.03048 PROA 3      0.00000
   28    3 HSP  HN    -1.74986  -1.12274   0.40520 PROA 3      0.00000
   29    3 HSP  CA    -0.40123   0.39754  -0.24848 PROA 3      0.00000
   30    3 HSP  HA    -0.32645   0.60277  -1.30943 PROA 3      0.00000
   31    3 HSP  CB    -0.19242   1.74467   0.49608 PROA 3      0.00000
   32    3 HSP  HB1   -1.00261   2.44803   0.20534 PROA 3      0.00000
   33    3 HSP  HB2   -0.29737   1.57305   1.59095 PROA 3      0.00000
   34    3 HSP  CD2    2.37060   2.05714   0.72518 PROA 3      0.00000
   35    3 HSP  HD2    2.61196   1.31840   1.48473 PROA 3      0.00000
   36    3 HSP  CG     1.15286   2.39568   0.23705 PROA 3      0.00000
   37    3 HSP  NE2    3.30215   2.74412  -0.01278 PROA 3      0.00000
   38    3 HSP  HE2    4.29548   2.62937   0.05144 PROA 3      0.00000
   39    3 HSP  ND1    1.36790   3.28132  -0.78824 PROA 3      0.00000
   40    3 HSP  HD1    0.67515   3.62852  -1.42318 PROA 3      0.00000
   41    3 HSP  CE1    2.67340   3.46888  -0.92718 PROA 3      0.00000
   42    3 HSP  HE1    3.14607   4.08576  -1.67700 PROA 3      0.00000
   43    3 HSP  C      0.73835  -0.55172   0.09542 PROA 3      0.00000
   44    3 HSP  O      0.51858  -1.67091   0.55159 PROA 3      0.00000
   45    4 ALA  N      1.98615  -0.09761  -0.12723 PROA 4      0.00000
   46    4 ALA  HN     2.13109   0.81866  -0.49955 PROA 4      0.00000
   47    4 ALA  CA     3.19283  -0.86007   0.13956 PROA 4      0.00000
   48    4 ALA  HA     3.23754  -1.09190   1.19754 PROA 4      0.00000
   49    4 ALA  CB     3.10028  -2.20417  -0.61890 PROA 4      0.00000
   50    4 ALA  HB1    2.17328  -2.73805  -0.31933 PROA 4      0.00000
   51    4 ALA  HB2    3.06064  -2.04063  -1.71799 PROA 4      0.00000
   52    4 ALA  HB3    3.96523  -2.86357  -0.39027 PROA 4      0.00000
   53    4 ALA  C      4.50023  -0.12208  -0.19893 PROA 4      0.00000
   54    4 ALA  O      4.51569   1.01893  -0.65722 PROA 4      0.00000
   55    5 ALA  N      5.65744  -0.78989   0.03149 PROA 5      0.00000
   56    5 ALA  HN     5.59555  -1.71514   0.40472 PROA 5      0.00000
   57    5 ALA  CA     7.01296  -0.29991  -0.20905 PROA 5      0.00000
   58    5 ALA  HA     7.12881  -0.08541  -1.26528 PROA 5      0.00000
   59    5 ALA  CB     7.19297   1.03475   0.55036 PROA 5      0.00000
   60    5 ALA  HB1    6.40784   1.75338   0.23217 PROA 5      0.00000
   61    5 ALA  HB2    7.09575   0.88598   1.64796 PROA 5      0.00000
   62    5 ALA  HB3    8.18337   1.49395   0.34189 PROA 5      0.00000
   63    5 ALA  C      8.12528  -1.29901   0.15574 PROA 5      0.00000
   64    5 ALA  O      7.85518  -2.40964   0.61010 PROA 5      0.00000
   65    5 ALA  NT     9.39011  -0.89016  -0.04931 PROA 5      0.00000
   66    5 ALA  HNT    9.61752   0.00819  -0.41711 PROA 5      0.00000
   67    5 ALA  CAT   10.48200  -1.75886   0.26382 PROA 5      0.00000
   68    5 ALA  HT1   10.40012  -2.68917  -0.33795 PROA 5      0.00000
   69    5 ALA  HT2   11.44070  -1.24923   0.02827 PROA 5      0.00000
   70    5 ALA  HT3   10.45468  -2.01403   1.34477 PROA 5      0.00000
