PSF CMAP XPLOR

       2 !NTITLE
* EXECUTING CHARMM SCRIPT FROM PYTHON                                           
*  DATE:     6/12/25     17:14:10      CREATED BY USER: raheelx                 

      70 !NATOM
       1 PROA 1    ALA  CAY  CT3   -0.270000       12.0110           0
       2 PROA 1    ALA  HY1  HA3    0.900000E-01   1.00800           0
       3 PROA 1    ALA  HY2  HA3    0.900000E-01   1.00800           0
       4 PROA 1    ALA  HY3  HA3    0.900000E-01   1.00800           0
       5 PROA 1    ALA  CY   C      0.510000       12.0110           0
       6 PROA 1    ALA  OY   O     -0.510000       15.9994           0
       7 PROA 1    ALA  N    NH1   -0.470000       14.0070           0
       8 PROA 1    ALA  HN   H      0.310000       1.00800           0
       9 PROA 1    ALA  CA   CT1    0.700000E-01   12.0110           0
      10 PROA 1    ALA  HA   HB1    0.900000E-01   1.00800           0
      11 PROA 1    ALA  CB   CT3   -0.270000       12.0110           0
      12 PROA 1    ALA  HB1  HA3    0.900000E-01   1.00800           0
      13 PROA 1    ALA  HB2  HA3    0.900000E-01   1.00800           0
      14 PROA 1    ALA  HB3  HA3    0.900000E-01   1.00800           0
      15 PROA 1    ALA  C    C      0.510000       12.0110           0
      16 PROA 1    ALA  O    O     -0.510000       15.9994           0
      17 PROA 2    ALA  N    NH1   -0.470000       14.0070           0
      18 PROA 2    ALA  HN   H      0.310000       1.00800           0
      19 PROA 2    ALA  CA   CT1    0.700000E-01   12.0110           0
      20 PROA 2    ALA  HA   HB1    0.900000E-01   1.00800           0
      21 PROA 2    ALA  CB   CT3   -0.270000       12.0110           0
      22 PROA 2    ALA  HB1  HA3    0.900000E-01   1.00800           0
      23 PROA 2    ALA  HB2  HA3    0.900000E-01   1.00800           0
      24 PROA 2    ALA  HB3  HA3    0.900000E-01   1.00800           0
      25 PROA 2    ALA  C    C      0.510000       12.0110           0
      26 PROA 2    ALA  O    O     -0.510000       15.9994           0
      27 PROA 3    HSP  N    NH1   -0.470000       14.0070           0
      28 PROA 3    HSP  HN   H      0.310000       1.00800           0
      29 PROA 3    HSP  CA   CT1    0.700000E-01   12.0110           0
      30 PROA 3    HSP  HA   HB1    0.900000E-01   1.00800           0
      31 PROA 3    HSP  CB   CT2A  -0.500000E-01   12.0110           0
      32 PROA 3    HSP  HB1  HA2    0.900000E-01   1.00800           0
      33 PROA 3    HSP  HB2  HA2    0.900000E-01   1.00800           0
      34 PROA 3    HSP  CD2  CPH1   0.190000       12.0110           0
      35 PROA 3    HSP  HD2  HR1    0.130000       1.00800           0
      36 PROA 3    HSP  CG   CPH1   0.190000       12.0110           0
      37 PROA 3    HSP  NE2  NR3   -0.510000       14.0070           0
      38 PROA 3    HSP  HE2  H      0.440000       1.00800           0
      39 PROA 3    HSP  ND1  NR3   -0.510000       14.0070           0
      40 PROA 3    HSP  HD1  H      0.440000       1.00800           0
      41 PROA 3    HSP  CE1  CPH2   0.320000       12.0110           0
      42 PROA 3    HSP  HE1  HR2    0.180000       1.00800           0
      43 PROA 3    HSP  C    C      0.510000       12.0110           0
      44 PROA 3    HSP  O    O     -0.510000       15.9994           0
      45 PROA 4    ALA  N    NH1   -0.470000       14.0070           0
      46 PROA 4    ALA  HN   H      0.310000       1.00800           0
      47 PROA 4    ALA  CA   CT1    0.700000E-01   12.0110           0
      48 PROA 4    ALA  HA   HB1    0.900000E-01   1.00800           0
      49 PROA 4    ALA  CB   CT3   -0.270000       12.0110           0
      50 PROA 4    ALA  HB1  HA3    0.900000E-01   1.00800           0
      51 PROA 4    ALA  HB2  HA3    0.900000E-01   1.00800           0
      52 PROA 4    ALA  HB3  HA3    0.900000E-01   1.00800           0
      53 PROA 4    ALA  C    C      0.510000       12.0110           0
      54 PROA 4    ALA  O    O     -0.510000       15.9994           0
      55 PROA 5    ALA  N    NH1   -0.470000       14.0070           0
      56 PROA 5    ALA  HN   H      0.310000       1.00800           0
      57 PROA 5    ALA  CA   CT1    0.700000E-01   12.0110           0
      58 PROA 5    ALA  HA   HB1    0.900000E-01   1.00800           0
      59 PROA 5    ALA  CB   CT3   -0.270000       12.0110           0
      60 PROA 5    ALA  HB1  HA3    0.900000E-01   1.00800           0
      61 PROA 5    ALA  HB2  HA3    0.900000E-01   1.00800           0
      62 PROA 5    ALA  HB3  HA3    0.900000E-01   1.00800           0
      63 PROA 5    ALA  C    C      0.510000       12.0110           0
      64 PROA 5    ALA  O    O     -0.510000       15.9994           0
      65 PROA 5    ALA  NT   NH1   -0.470000       14.0070           0
      66 PROA 5    ALA  HNT  H      0.310000       1.00800           0
      67 PROA 5    ALA  CAT  CT3   -0.110000       12.0110           0
      68 PROA 5    ALA  HT1  HA3    0.900000E-01   1.00800           0
      69 PROA 5    ALA  HT2  HA3    0.900000E-01   1.00800           0
      70 PROA 5    ALA  HT3  HA3    0.900000E-01   1.00800           0

      70 !NBOND: bonds
       5       1       5       7       1       2       1       3
       1       4       6       5      11       9       7       8
       7       9      15       9      15      17       9      10
      11      12      11      13      11      14      16      15
      21      19      17      18      17      19      25      19
      25      27      19      20      21      22      21      23
      21      24      26      25      31      29      36      31
      39      36      41      39      37      34      27      28
      27      29      43      29      43      45      29      30
      31      32      31      33      39      40      37      38
      34      35      41      42      44      43      34      36
      37      41      49      47      45      46      45      47
      53      47      53      55      47      48      49      50
      49      51      49      52      54      53      59      57
      55      56      55      57      63      57      57      58
      59      60      59      61      59      62      64      63
      63      65      65      66      65      67      67      68
      67      69      67      70

     123 !NTHETA: angles
       1       5       6       1       5       7       2       1       3
       2       1       4       2       1       5       3       1       4
       3       1       5       4       1       5       5       7       8
       5       7       9       6       5       7       7       9      10
       7       9      11       7       9      15       8       7       9
       9      11      12       9      11      13       9      11      14
       9      15      16       9      15      17      10       9      11
      10       9      15      11       9      15      12      11      13
      12      11      14      13      11      14      15      17      18
      15      17      19      16      15      17      17      19      20
      17      19      21      17      19      25      18      17      19
      19      21      22      19      21      23      19      21      24
      19      25      26      19      25      27      20      19      21
      20      19      25      21      19      25      22      21      23
      22      21      24      23      21      24      25      27      28
      25      27      29      26      25      27      27      29      30
      27      29      31      27      29      43      28      27      29
      29      31      32      29      31      33      29      31      36
      29      43      44      29      43      45      30      29      31
      30      29      43      31      29      43      31      36      34
      31      36      39      32      31      33      32      31      36
      33      31      36      34      36      39      34      37      38
      34      37      41      35      34      36      35      34      37
      36      34      37      36      39      40      36      39      41
      37      41      39      37      41      42      38      37      41
      39      41      42      40      39      41      43      45      46
      43      45      47      44      43      45      45      47      48
      45      47      49      45      47      53      46      45      47
      47      49      50      47      49      51      47      49      52
      47      53      54      47      53      55      48      47      49
      48      47      53      49      47      53      50      49      51
      50      49      52      51      49      52      53      55      56
      53      55      57      54      53      55      55      57      58
      55      57      59      55      57      63      56      55      57
      57      59      60      57      59      61      57      59      62
      57      63      64      57      63      65      58      57      59
      58      57      63      59      57      63      60      59      61
      60      59      62      61      59      62      63      65      66
      63      65      67      64      63      65      65      67      68
      65      67      69      65      67      70      66      65      67
      68      67      69      68      67      70      69      67      70

     167 !NPHI: dihedrals
       1       5       7       8       1       5       7       9
       2       1       5       6       2       1       5       7
       3       1       5       6       3       1       5       7
       4       1       5       6       4       1       5       7
       5       7       9      10       5       7       9      11
       5       7       9      15       6       5       7       8
       6       5       7       9       7       9      11      12
       7       9      11      13       7       9      11      14
       7       9      15      16       7       9      15      17
       8       7       9      10       8       7       9      11
       8       7       9      15       9      15      17      18
       9      15      17      19      10       9      11      12
      10       9      11      13      10       9      11      14
      10       9      15      16      10       9      15      17
      11       9      15      16      11       9      15      17
      12      11       9      15      13      11       9      15
      14      11       9      15      15      17      19      20
      15      17      19      21      15      17      19      25
      16      15      17      18      16      15      17      19
      17      19      21      22      17      19      21      23
      17      19      21      24      17      19      25      26
      17      19      25      27      18      17      19      20
      18      17      19      21      18      17      19      25
      19      25      27      28      19      25      27      29
      20      19      21      22      20      19      21      23
      20      19      21      24      20      19      25      26
      20      19      25      27      21      19      25      26
      21      19      25      27      22      21      19      25
      23      21      19      25      24      21      19      25
      25      27      29      30      25      27      29      31
      25      27      29      43      26      25      27      28
      26      25      27      29      27      29      31      32
      27      29      31      33      27      29      31      36
      27      29      43      44      27      29      43      45
      28      27      29      30      28      27      29      31
      28      27      29      43      29      31      36      34
      29      31      36      39      29      43      45      46
      29      43      45      47      30      29      31      32
      30      29      31      33      30      29      31      36
      30      29      43      44      30      29      43      45
      31      29      43      44      31      29      43      45
      31      36      34      35      31      36      34      37
      31      36      39      40      31      36      39      41
      32      31      29      43      32      31      36      34
      32      31      36      39      33      31      29      43
      33      31      36      34      33      31      36      39
      34      36      39      40      34      36      39      41
      34      37      41      39      34      37      41      42
      35      34      36      39      35      34      37      38
      35      34      37      41      36      31      29      43
      36      34      37      38      36      34      37      41
      36      39      41      37      36      39      41      42
      37      34      36      39      37      41      39      40
      38      37      41      39      38      37      41      42
      40      39      41      42      43      45      47      48
      43      45      47      49      43      45      47      53
      44      43      45      46      44      43      45      47
      45      47      49      50      45      47      49      51
      45      47      49      52      45      47      53      54
      45      47      53      55      46      45      47      48
      46      45      47      49      46      45      47      53
      47      53      55      56      47      53      55      57
      48      47      49      50      48      47      49      51
      48      47      49      52      48      47      53      54
      48      47      53      55      49      47      53      54
      49      47      53      55      50      49      47      53
      51      49      47      53      52      49      47      53
      53      55      57      58      53      55      57      59
      53      55      57      63      54      53      55      56
      54      53      55      57      55      57      59      60
      55      57      59      61      55      57      59      62
      55      57      63      64      55      57      63      65
      56      55      57      58      56      55      57      59
      56      55      57      63      57      63      65      66
      57      63      65      67      58      57      59      60
      58      57      59      61      58      57      59      62
      58      57      63      64      58      57      63      65
      59      57      63      64      59      57      63      65
      60      59      57      63      61      59      57      63
      62      59      57      63      63      65      67      68
      63      65      67      69      63      65      67      70
      64      63      65      66      64      63      65      67
      66      65      67      68      66      65      67      69
      66      65      67      70

      16 !NIMPHI: impropers
       5       1       7       6       7       5       9       8
      15       9      17      16      17      15      19      18
      25      19      27      26      39      36      41      40
      39      41      36      40      37      34      41      38
      37      41      34      38      27      25      29      28
      43      29      45      44      45      43      47      46
      53      47      55      54      55      53      57      56
      65      63      67      66      63      57      65      64

       8 !NDON: donors
       7       8      17      18      27      28      39      40
      37      38      45      46      55      56      65      66

       6 !NACC: acceptors
       6       5      16      15      26      25      44      43
      54      53      64      63

       0 !NNB

       0       0       0       0       0       0       0       0
       0       0       0       0       0       0       0       0
       0       0       0       0       0       0       0       0
       0       0       0       0       0       0       0       0
       0       0       0       0       0       0       0       0
       0       0       0       0       0       0       0       0
       0       0       0       0       0       0       0       0
       0       0       0       0       0       0       0       0
       0       0       0       0       0       0

      19       0 !NGRP NST2
       0       1       0       4       1       0       6       1       0
      10       1       0      14       1       0      16       1       0
      20       1       0      24       1       0      26       1       0
      30       2       0      36       2       0      42       1       0
      44       1       0      48       1       0      52       1       0
      54       1       0      58       1       0      62       1       0
      64       1       0

       0       0 !NUMLP NUMLPH

       5 !NCRTERM: cross-terms
       5       7       9      15       7       9      15      17
      15      17      19      25      17      19      25      27
      25      27      29      43      27      29      43      45
      43      45      47      53      45      47      53      55
      53      55      57      63      55      57      63      65
