* EXECUTING CHARMM SCRIPT FROM PYTHON
*  DATE:     6/12/25     17:14:10      CREATED BY USER: raheelx
*
   74
    1    1 ALA  CAY  -10.53489  -2.28743   0.41267 PROA 1      0.00000
    2    1 ALA  HY1  -11.04549  -1.57034   1.09044 PROA 1      0.00000
    3    1 ALA  HY2  -10.26552  -3.20425   0.97941 PROA 1      0.00000
    4    1 ALA  HY3  -11.21627  -2.55593  -0.42276 PROA 1      0.00000
    5    1 ALA  CY    -9.29928  -1.66037  -0.13521 PROA 1      0.00000
    6    1 ALA  OY    -8.56951  -2.27280  -0.91320 PROA 1      0.00000
    7    1 ALA  N     -9.03500  -0.40422   0.26639 PROA 1      0.00000
    8    1 ALA  HN    -9.62119   0.09905   0.89655 PROA 1      0.00000
    9    1 ALA  CA    -7.86829   0.26925  -0.21331 PROA 1      0.00000
   10    1 ALA  HA    -7.83267   0.31687  -1.29568 PROA 1      0.00000
   11    1 ALA  CB    -7.76271   1.71980   0.31128 PROA 1      0.00000
   12    1 ALA  HB1   -8.62488   2.31397  -0.05983 PROA 1      0.00000
   13    1 ALA  HB2   -7.78319   1.74502   1.42271 PROA 1      0.00000
   14    1 ALA  HB3   -6.83007   2.21405  -0.03672 PROA 1      0.00000
   15    1 ALA  C     -6.69213  -0.54122   0.21081 PROA 1      0.00000
   16    1 ALA  O     -6.80468  -1.58388   0.85295 PROA 1      0.00000
   17    2 ALA  N     -5.46877  -0.07723  -0.14458 PROA 2      0.00000
   18    2 ALA  HN    -5.42646   0.77446  -0.66615 PROA 2      0.00000
   19    2 ALA  CA    -4.17836  -0.69417   0.15483 PROA 2      0.00000
   20    2 ALA  HA    -4.05269  -0.74612   1.23026 PROA 2      0.00000
   21    2 ALA  CB    -4.19608  -2.14708  -0.37355 PROA 2      0.00000
   22    2 ALA  HB1   -5.05387  -2.69502   0.07148 PROA 2      0.00000
   23    2 ALA  HB2   -4.31309  -2.16860  -1.47906 PROA 2      0.00000
   24    2 ALA  HB3   -3.26488  -2.69143  -0.10564 PROA 2      0.00000
   25    2 ALA  C     -2.96242   0.07761  -0.38771 PROA 2      0.00000
   26    2 ALA  O     -3.07354   1.12629  -1.02023 PROA 2      0.00000
   27    3 LYS  N     -1.73974  -0.45212  -0.13744 PROA 3      0.00000
   28    3 LYS  HN    -1.69325  -1.30530   0.37977 PROA 3      0.00000
   29    3 LYS  CA    -0.44854   0.09543  -0.54779 PROA 3      0.00000
   30    3 LYS  HA    -0.39405   0.09097  -1.62971 PROA 3      0.00000
   31    3 LYS  CB    -0.24201   1.53849  -0.00139 PROA 3      0.00000
   32    3 LYS  HB1   -1.07422   2.16282  -0.40137 PROA 3      0.00000
   33    3 LYS  HB2   -0.36333   1.52768   1.10502 PROA 3      0.00000
   34    3 LYS  CG     1.09433   2.21325  -0.37729 PROA 3      0.00000
   35    3 LYS  HG1    1.93624   1.59471   0.00891 PROA 3      0.00000
   36    3 LYS  HG2    1.18593   2.24284  -1.48743 PROA 3      0.00000
   37    3 LYS  CD     1.23862   3.63658   0.19190 PROA 3      0.00000
   38    3 LYS  HD1    0.38630   4.25145  -0.17783 PROA 3      0.00000
   39    3 LYS  HD2    1.15039   3.57703   1.30140 PROA 3      0.00000
   40    3 LYS  CE     2.57430   4.28670  -0.19479 PROA 3      0.00000
   41    3 LYS  HE1    3.42703   3.68563   0.19238 PROA 3      0.00000
   42    3 LYS  HE2    2.66817   4.35875  -1.30078 PROA 3      0.00000
   43    3 LYS  NZ     2.66809   5.63229   0.36501 PROA 3      0.00000
   44    3 LYS  HZ1    3.57599   6.06581   0.10004 PROA 3      0.00000
   45    3 LYS  HZ2    1.88744   6.21518   0.00055 PROA 3      0.00000
   46    3 LYS  HZ3    2.60059   5.58069   1.40163 PROA 3      0.00000
   47    3 LYS  C      0.62531  -0.84875  -0.03610 PROA 3      0.00000
   48    3 LYS  O      0.32580  -1.85744   0.59643 PROA 3      0.00000
   49    4 ALA  N      1.90693  -0.53070  -0.30600 PROA 4      0.00000
   50    4 ALA  HN     2.11225   0.29921  -0.82398 PROA 4      0.00000
   51    4 ALA  CA     3.05803  -1.31051   0.10093 PROA 4      0.00000
   52    4 ALA  HA     3.08368  -1.36410   1.18330 PROA 4      0.00000
   53    4 ALA  CB     2.88155  -2.75415  -0.42367 PROA 4      0.00000
   54    4 ALA  HB1    1.92083  -3.17063  -0.05265 PROA 4      0.00000
   55    4 ALA  HB2    2.85669  -2.77495  -1.53510 PROA 4      0.00000
   56    4 ALA  HB3    3.70114  -3.41920  -0.07557 PROA 4      0.00000
   57    4 ALA  C      4.41171  -0.72377  -0.33701 PROA 4      0.00000
   58    4 ALA  O      4.50269   0.32100  -0.97915 PROA 4      0.00000
   59    5 ALA  N      5.52240  -1.41527   0.01849 PROA 5      0.00000
   60    5 ALA  HN     5.39938  -2.25909   0.54006 PROA 5      0.00000
   61    5 ALA  CA     6.90769  -1.05914  -0.28077 PROA 5      0.00000
   62    5 ALA  HA     7.04114  -1.03245  -1.35619 PROA 5      0.00000
   63    5 ALA  CB     7.17084   0.36984   0.24762 PROA 5      0.00000
   64    5 ALA  HB1    6.43505   1.07311  -0.19749 PROA 5      0.00000
   65    5 ALA  HB2    7.06008   0.41357   1.35312 PROA 5      0.00000
   66    5 ALA  HB3    8.18965   0.72411  -0.02019 PROA 5      0.00000
   67    5 ALA  C      7.95164  -2.05122   0.26188 PROA 5      0.00000
   68    5 ALA  O      7.60854  -3.05068   0.89137 PROA 5      0.00000
   69    5 ALA  NT     9.24105  -1.76324   0.00984 PROA 5      0.00000
   70    5 ALA  HNT    9.52749  -0.95543  -0.49948 PROA 5      0.00000
   71    5 ALA  CAT   10.27324  -2.63438   0.47949 PROA 5      0.00000
   72    5 ALA  HT1   10.13359  -3.64534   0.04041 PROA 5      0.00000
   73    5 ALA  HT2   11.26380  -2.23304   0.17610 PROA 5      0.00000
   74    5 ALA  HT3   10.22542  -2.70255   1.58737 PROA 5      0.00000
