* EXECUTING CHARMM SCRIPT FROM PYTHON
*  DATE:     6/12/25     17:12:43      CREATED BY USER: raheelx
*
   32
    1    1 THY  H5T    0.35360   3.01711   0.29782 PROA 1      0.00000
    2    1 THY  O5'    0.61235   2.10156   0.16968 PROA 1      0.00000
    3    1 THY  C5'    1.68880   1.86001   1.09532 PROA 1      0.00000
    4    1 THY  H5'    1.29861   1.94848   2.13177 PROA 1      0.00000
    5    1 THY  H5''   2.55803   2.48964   0.80837 PROA 1      0.00000
    6    1 THY  C4'    2.14933   0.42338   0.94612 PROA 1      0.00000
    7    1 THY  H4'    2.92308   0.17195   1.70270 PROA 1      0.00000
    8    1 THY  O4'    1.01918  -0.46852   1.17134 PROA 1      0.00000
    9    1 THY  C1'    0.90985  -1.02922   0.25500 PROA 1      0.00000
   10    1 THY  H1'    1.41433  -1.96805   0.56870 PROA 1      0.00000
   11    1 THY  N1    -0.57907  -1.01862   0.29875 PROA 1      0.00000
   12    1 THY  C6    -1.10652   0.14154  -0.20507 PROA 1      0.00000
   13    1 THY  H6    -0.39631   0.88682  -0.56319 PROA 1      0.00000
   14    1 THY  C2    -1.37463  -2.03514   0.78196 PROA 1      0.00000
   15    1 THY  O2    -0.92194  -3.07310   1.23353 PROA 1      0.00000
   16    1 THY  N3    -2.73480  -1.80234   0.72107 PROA 1      0.00000
   17    1 THY  H3    -3.38538  -2.59230   1.09632 PROA 1      0.00000
   18    1 THY  C4    -3.35151  -0.66922   0.23246 PROA 1      0.00000
   19    1 THY  O4    -4.58064  -0.57549   0.23009 PROA 1      0.00000
   20    1 THY  C5    -2.43409   0.34069  -0.25092 PROA 1      0.00000
   21    1 THY  C5M   -3.02109   1.60658  -0.80132 PROA 1      0.00000
   22    1 THY  H51   -2.21089   2.28944  -1.13539 PROA 1      0.00000
   23    1 THY  H52   -3.55266   2.08316   0.04993 PROA 1      0.00000
   24    1 THY  H53   -3.72886   1.52173  -1.65349 PROA 1      0.00000
   25    1 THY  C2'    1.45949  -0.56482  -1.00386 PROA 1      0.00000
   26    1 THY  H2''   0.82164   0.22859  -1.44879 PROA 1      0.00000
   27    1 THY  O2'    1.78081  -1.66522  -1.84391 PROA 1      0.00000
   28    1 THY  H2'    1.11957  -2.36064  -1.87151 PROA 1      0.00000
   29    1 THY  C3'    2.66839   0.02362  -0.43474 PROA 1      0.00000
   30    1 THY  H3'    2.93272   0.95233  -0.98424 PROA 1      0.00000
   31    1 THY  O3'    3.80759  -0.82607  -0.42831 PROA 1      0.00000
   32    1 THY  H3T    3.86103  -1.43785  -1.16620 PROA 1      0.00000
