PSF CMAP XPLOR

       2 !NTITLE
* EXECUTING CHARMM SCRIPT FROM PYTHON                                           
*  DATE:     6/12/25     17:12:43      CREATED BY USER: raheelx                 

      32 !NATOM
       1 PROA 1    THY  H5T  HN5    0.430000       1.00800           0
       2 PROA 1    THY  O5'  ON5   -0.660000       15.9994           0
       3 PROA 1    THY  C5'  CN8B   0.500000E-01   12.0110           0
       4 PROA 1    THY  H5'  HN8    0.900000E-01   1.00800           0
       5 PROA 1    THY  H5'' HN8    0.900000E-01   1.00800           0
       6 PROA 1    THY  C4'  CN7    0.160000       12.0110           0
       7 PROA 1    THY  H4'  HN7    0.900000E-01   1.00800           0
       8 PROA 1    THY  O4'  ON6B  -0.500000       15.9994           0
       9 PROA 1    THY  C1'  CN7B   0.160000       12.0110           0
      10 PROA 1    THY  H1'  HN7    0.900000E-01   1.00800           0
      11 PROA 1    THY  N1   NN2B  -0.340000       14.0070           0
      12 PROA 1    THY  C6   CN3    0.170000       12.0110           0
      13 PROA 1    THY  H6   HN3    0.170000       1.00800           0
      14 PROA 1    THY  C2   CN1T   0.510000       12.0110           0
      15 PROA 1    THY  O2   ON1   -0.410000       15.9994           0
      16 PROA 1    THY  N3   NN2U  -0.460000       14.0070           0
      17 PROA 1    THY  H3   HN2    0.360000       1.00800           0
      18 PROA 1    THY  C4   CN1    0.500000       12.0110           0
      19 PROA 1    THY  O4   ON1   -0.450000       15.9994           0
      20 PROA 1    THY  C5   CN3T  -0.150000       12.0110           0
      21 PROA 1    THY  C5M  CN9   -0.110000       12.0110           0
      22 PROA 1    THY  H51  HN9    0.700000E-01   1.00800           0
      23 PROA 1    THY  H52  HN9    0.700000E-01   1.00800           0
      24 PROA 1    THY  H53  HN9    0.700000E-01   1.00800           0
      25 PROA 1    THY  C2'  CN7B   0.140000       12.0110           0
      26 PROA 1    THY  H2'' HN7    0.900000E-01   1.00800           0
      27 PROA 1    THY  O2'  ON5   -0.660000       15.9994           0
      28 PROA 1    THY  H2'  HN5    0.430000       1.00800           0
      29 PROA 1    THY  C3'  CN7    0.140000       12.0110           0
      30 PROA 1    THY  H3'  HN7    0.900000E-01   1.00800           0
      31 PROA 1    THY  O3'  ON5   -0.660000       15.9994           0
      32 PROA 1    THY  H3T  HN5    0.430000       1.00800           0

      33 !NBOND: bonds
       1       2       2       3       3       6       6       8
       6      29       8       9       9      11       9      25
      11      14      11      12      14      16      16      17
      16      18      18      20      20      21      25      29
      29      31      25      27      27      28       9      10
      25      26      29      30       6       7       3       4
       3       5      12      13      21      22      21      23
      21      24      14      15      18      19      20      12
      31      32

      58 !NTHETA: angles
       1       2       3       2       3       4       2       3       5
       2       3       6       3       6       7       3       6       8
       3       6      29       4       3       5       4       3       6
       5       3       6       6       8       9       6      29      25
       6      29      30       6      29      31       7       6       8
       7       6      29       8       6      29       8       9      10
       8       9      11       8       9      25       9      11      12
       9      11      14       9      25      26       9      25      27
       9      25      29      10       9      11      10       9      25
      11       9      25      11      12      13      11      12      20
      11      14      15      11      14      16      12      11      14
      12      20      18      12      20      21      13      12      20
      14      16      17      14      16      18      15      14      16
      16      18      19      16      18      20      17      16      18
      18      20      21      19      18      20      20      21      22
      20      21      23      20      21      24      22      21      23
      22      21      24      23      21      24      25      27      28
      25      29      30      25      29      31      26      25      27
      26      25      29      27      25      29      29      31      32
      30      29      31

      87 !NPHI: dihedrals
       1       2       3       4       1       2       3       5
       1       2       3       6       2       3       6       7
       2       3       6       8       2       3       6      29
       3       6       8       9       3       6      29      25
       3       6      29      30       3       6      29      31
       4       3       6       7       4       3       6       8
       4       3       6      29       5       3       6       7
       5       3       6       8       5       3       6      29
       6       8       9      10       6       8       9      11
       6       8       9      25       6      29      25       9
       6      29      25      26       6      29      25      27
       6      29      31      32       7       6       8       9
       7       6      29      25       7       6      29      30
       7       6      29      31       8       6      29      25
       8       6      29      30       8       6      29      31
       8       9      11      12       8       9      11      14
       8       9      25      26       8       9      25      27
       8       9      25      29       9       8       6      29
       9      11      12      13       9      11      12      20
       9      11      14      15       9      11      14      16
       9      25      27      28       9      25      29      30
       9      25      29      31      10       9      11      12
      10       9      11      14      10       9      25      26
      10       9      25      27      10       9      25      29
      11       9      25      26      11       9      25      27
      11       9      25      29      11      12      20      18
      11      12      20      21      11      14      16      17
      11      14      16      18      12      11       9      25
      12      11      14      15      12      11      14      16
      12      20      18      16      12      20      18      19
      12      20      21      22      12      20      21      23
      12      20      21      24      13      12      11      14
      13      12      20      18      13      12      20      21
      14      11       9      25      14      11      12      20
      14      16      18      19      14      16      18      20
      15      14      16      17      15      14      16      18
      16      18      20      21      17      16      18      19
      17      16      18      20      18      20      21      22
      18      20      21      23      18      20      21      24
      19      18      20      21      25      29      31      32
      26      25      27      28      26      25      29      30
      26      25      29      31      27      25      29      30
      27      25      29      31      28      27      25      29
      30      29      31      32

       3 !NIMPHI: impropers
      14      11      16      15      18      16      20      19
      20      18      12      21

       4 !NDON: donors
       2       1      16      17      27      28      31      32

       6 !NACC: acceptors
      15      14      19      18      27       0      31       0
       8       0       2       0

       0 !NNB

       0       0       0       0       0       0       0       0
       0       0       0       0       0       0       0       0
       0       0       0       0       0       0       0       0
       0       0       0       0       0       0       0       0

       5       0 !NGRP NST2
       0       1       0       5       1       0      10       1       0
      24       1       0      28       1       0

       0       0 !NUMLP NUMLPH

       0 !NCRTERM: cross-terms

