PSF CMAP XPLOR

       2 !NTITLE
* EXECUTING CHARMM SCRIPT FROM PYTHON                                           
*  DATE:     6/12/25     17:14:10      CREATED BY USER: raheelx                 

      73 !NATOM
       1 PROA 1    ALA  CAY  CT3   -0.270000       12.0110           0
       2 PROA 1    ALA  HY1  HA3    0.900000E-01   1.00800           0
       3 PROA 1    ALA  HY2  HA3    0.900000E-01   1.00800           0
       4 PROA 1    ALA  HY3  HA3    0.900000E-01   1.00800           0
       5 PROA 1    ALA  CY   C      0.510000       12.0110           0
       6 PROA 1    ALA  OY   O     -0.510000       15.9994           0
       7 PROA 1    ALA  N    NH1   -0.470000       14.0070           0
       8 PROA 1    ALA  HN   H      0.310000       1.00800           0
       9 PROA 1    ALA  CA   CT1    0.700000E-01   12.0110           0
      10 PROA 1    ALA  HA   HB1    0.900000E-01   1.00800           0
      11 PROA 1    ALA  CB   CT3   -0.270000       12.0110           0
      12 PROA 1    ALA  HB1  HA3    0.900000E-01   1.00800           0
      13 PROA 1    ALA  HB2  HA3    0.900000E-01   1.00800           0
      14 PROA 1    ALA  HB3  HA3    0.900000E-01   1.00800           0
      15 PROA 1    ALA  C    C      0.510000       12.0110           0
      16 PROA 1    ALA  O    O     -0.510000       15.9994           0
      17 PROA 2    ALA  N    NH1   -0.470000       14.0070           0
      18 PROA 2    ALA  HN   H      0.310000       1.00800           0
      19 PROA 2    ALA  CA   CT1    0.700000E-01   12.0110           0
      20 PROA 2    ALA  HA   HB1    0.900000E-01   1.00800           0
      21 PROA 2    ALA  CB   CT3   -0.270000       12.0110           0
      22 PROA 2    ALA  HB1  HA3    0.900000E-01   1.00800           0
      23 PROA 2    ALA  HB2  HA3    0.900000E-01   1.00800           0
      24 PROA 2    ALA  HB3  HA3    0.900000E-01   1.00800           0
      25 PROA 2    ALA  C    C      0.510000       12.0110           0
      26 PROA 2    ALA  O    O     -0.510000       15.9994           0
      27 PROA 3    TYR  N    NH1   -0.470000       14.0070           0
      28 PROA 3    TYR  HN   H      0.310000       1.00800           0
      29 PROA 3    TYR  CA   CT1    0.700000E-01   12.0110           0
      30 PROA 3    TYR  HA   HB1    0.900000E-01   1.00800           0
      31 PROA 3    TYR  CB   CT2   -0.180000       12.0110           0
      32 PROA 3    TYR  HB1  HA2    0.900000E-01   1.00800           0
      33 PROA 3    TYR  HB2  HA2    0.900000E-01   1.00800           0
      34 PROA 3    TYR  CG   CA      0.00000       12.0110           0
      35 PROA 3    TYR  CD1  CA    -0.115000       12.0110           0
      36 PROA 3    TYR  HD1  HP     0.115000       1.00800           0
      37 PROA 3    TYR  CE1  CA    -0.115000       12.0110           0
      38 PROA 3    TYR  HE1  HP     0.115000       1.00800           0
      39 PROA 3    TYR  CZ   CA     0.110000       12.0110           0
      40 PROA 3    TYR  OH   OH1   -0.540000       15.9994           0
      41 PROA 3    TYR  HH   H      0.430000       1.00800           0
      42 PROA 3    TYR  CD2  CA    -0.115000       12.0110           0
      43 PROA 3    TYR  HD2  HP     0.115000       1.00800           0
      44 PROA 3    TYR  CE2  CA    -0.115000       12.0110           0
      45 PROA 3    TYR  HE2  HP     0.115000       1.00800           0
      46 PROA 3    TYR  C    C      0.510000       12.0110           0
      47 PROA 3    TYR  O    O     -0.510000       15.9994           0
      48 PROA 4    ALA  N    NH1   -0.470000       14.0070           0
      49 PROA 4    ALA  HN   H      0.310000       1.00800           0
      50 PROA 4    ALA  CA   CT1    0.700000E-01   12.0110           0
      51 PROA 4    ALA  HA   HB1    0.900000E-01   1.00800           0
      52 PROA 4    ALA  CB   CT3   -0.270000       12.0110           0
      53 PROA 4    ALA  HB1  HA3    0.900000E-01   1.00800           0
      54 PROA 4    ALA  HB2  HA3    0.900000E-01   1.00800           0
      55 PROA 4    ALA  HB3  HA3    0.900000E-01   1.00800           0
      56 PROA 4    ALA  C    C      0.510000       12.0110           0
      57 PROA 4    ALA  O    O     -0.510000       15.9994           0
      58 PROA 5    ALA  N    NH1   -0.470000       14.0070           0
      59 PROA 5    ALA  HN   H      0.310000       1.00800           0
      60 PROA 5    ALA  CA   CT1    0.700000E-01   12.0110           0
      61 PROA 5    ALA  HA   HB1    0.900000E-01   1.00800           0
      62 PROA 5    ALA  CB   CT3   -0.270000       12.0110           0
      63 PROA 5    ALA  HB1  HA3    0.900000E-01   1.00800           0
      64 PROA 5    ALA  HB2  HA3    0.900000E-01   1.00800           0
      65 PROA 5    ALA  HB3  HA3    0.900000E-01   1.00800           0
      66 PROA 5    ALA  C    C      0.510000       12.0110           0
      67 PROA 5    ALA  O    O     -0.510000       15.9994           0
      68 PROA 5    ALA  NT   NH1   -0.470000       14.0070           0
      69 PROA 5    ALA  HNT  H      0.310000       1.00800           0
      70 PROA 5    ALA  CAT  CT3   -0.110000       12.0110           0
      71 PROA 5    ALA  HT1  HA3    0.900000E-01   1.00800           0
      72 PROA 5    ALA  HT2  HA3    0.900000E-01   1.00800           0
      73 PROA 5    ALA  HT3  HA3    0.900000E-01   1.00800           0

      73 !NBOND: bonds
       5       1       5       7       1       2       1       3
       1       4       6       5      11       9       7       8
       7       9      15       9      15      17       9      10
      11      12      11      13      11      14      16      15
      21      19      17      18      17      19      25      19
      25      27      19      20      21      22      21      23
      21      24      26      25      31      29      34      31
      42      34      37      35      39      44      40      39
      27      28      27      29      46      29      46      48
      29      30      31      32      31      33      35      36
      42      43      37      38      44      45      40      41
      47      46      35      34      37      39      44      42
      52      50      48      49      48      50      56      50
      56      58      50      51      52      53      52      54
      52      55      57      56      62      60      58      59
      58      60      66      60      60      61      62      63
      62      64      62      65      67      66      66      68
      68      69      68      70      70      71      70      72
      70      73

     127 !NTHETA: angles
       1       5       6       1       5       7       2       1       3
       2       1       4       2       1       5       3       1       4
       3       1       5       4       1       5       5       7       8
       5       7       9       6       5       7       7       9      10
       7       9      11       7       9      15       8       7       9
       9      11      12       9      11      13       9      11      14
       9      15      16       9      15      17      10       9      11
      10       9      15      11       9      15      12      11      13
      12      11      14      13      11      14      15      17      18
      15      17      19      16      15      17      17      19      20
      17      19      21      17      19      25      18      17      19
      19      21      22      19      21      23      19      21      24
      19      25      26      19      25      27      20      19      21
      20      19      25      21      19      25      22      21      23
      22      21      24      23      21      24      25      27      28
      25      27      29      26      25      27      27      29      30
      27      29      31      27      29      46      28      27      29
      29      31      32      29      31      33      29      31      34
      29      46      47      29      46      48      30      29      31
      30      29      46      31      29      46      31      34      35
      31      34      42      32      31      33      32      31      34
      33      31      34      34      35      36      34      35      37
      34      42      43      34      42      44      35      34      42
      35      37      38      35      37      39      36      35      37
      37      39      40      37      39      44      38      37      39
      39      40      41      39      44      42      39      44      45
      40      39      44      42      44      45      43      42      44
      46      48      49      46      48      50      47      46      48
      48      50      51      48      50      52      48      50      56
      49      48      50      50      52      53      50      52      54
      50      52      55      50      56      57      50      56      58
      51      50      52      51      50      56      52      50      56
      53      52      54      53      52      55      54      52      55
      56      58      59      56      58      60      57      56      58
      58      60      61      58      60      62      58      60      66
      59      58      60      60      62      63      60      62      64
      60      62      65      60      66      67      60      66      68
      61      60      62      61      60      66      62      60      66
      63      62      64      63      62      65      64      62      65
      66      68      69      66      68      70      67      66      68
      68      70      71      68      70      72      68      70      73
      69      68      70      71      70      72      71      70      73
      72      70      73

     173 !NPHI: dihedrals
       1       5       7       8       1       5       7       9
       2       1       5       6       2       1       5       7
       3       1       5       6       3       1       5       7
       4       1       5       6       4       1       5       7
       5       7       9      10       5       7       9      11
       5       7       9      15       6       5       7       8
       6       5       7       9       7       9      11      12
       7       9      11      13       7       9      11      14
       7       9      15      16       7       9      15      17
       8       7       9      10       8       7       9      11
       8       7       9      15       9      15      17      18
       9      15      17      19      10       9      11      12
      10       9      11      13      10       9      11      14
      10       9      15      16      10       9      15      17
      11       9      15      16      11       9      15      17
      12      11       9      15      13      11       9      15
      14      11       9      15      15      17      19      20
      15      17      19      21      15      17      19      25
      16      15      17      18      16      15      17      19
      17      19      21      22      17      19      21      23
      17      19      21      24      17      19      25      26
      17      19      25      27      18      17      19      20
      18      17      19      21      18      17      19      25
      19      25      27      28      19      25      27      29
      20      19      21      22      20      19      21      23
      20      19      21      24      20      19      25      26
      20      19      25      27      21      19      25      26
      21      19      25      27      22      21      19      25
      23      21      19      25      24      21      19      25
      25      27      29      30      25      27      29      31
      25      27      29      46      26      25      27      28
      26      25      27      29      27      29      31      32
      27      29      31      33      27      29      31      34
      27      29      46      47      27      29      46      48
      28      27      29      30      28      27      29      31
      28      27      29      46      29      31      34      35
      29      31      34      42      29      46      48      49
      29      46      48      50      30      29      31      32
      30      29      31      33      30      29      31      34
      30      29      46      47      30      29      46      48
      31      29      46      47      31      29      46      48
      31      34      35      36      31      34      35      37
      31      34      42      43      31      34      42      44
      32      31      29      46      32      31      34      35
      32      31      34      42      33      31      29      46
      33      31      34      35      33      31      34      42
      34      31      29      46      34      35      37      38
      34      35      37      39      34      42      44      39
      34      42      44      45      35      34      42      43
      35      34      42      44      35      37      39      40
      35      37      39      44      36      35      34      42
      36      35      37      38      36      35      37      39
      37      35      34      42      37      39      40      41
      37      39      44      42      37      39      44      45
      38      37      39      40      38      37      39      44
      39      44      42      43      40      39      44      42
      40      39      44      45      41      40      39      44
      43      42      44      45      46      48      50      51
      46      48      50      52      46      48      50      56
      47      46      48      49      47      46      48      50
      48      50      52      53      48      50      52      54
      48      50      52      55      48      50      56      57
      48      50      56      58      49      48      50      51
      49      48      50      52      49      48      50      56
      50      56      58      59      50      56      58      60
      51      50      52      53      51      50      52      54
      51      50      52      55      51      50      56      57
      51      50      56      58      52      50      56      57
      52      50      56      58      53      52      50      56
      54      52      50      56      55      52      50      56
      56      58      60      61      56      58      60      62
      56      58      60      66      57      56      58      59
      57      56      58      60      58      60      62      63
      58      60      62      64      58      60      62      65
      58      60      66      67      58      60      66      68
      59      58      60      61      59      58      60      62
      59      58      60      66      60      66      68      69
      60      66      68      70      61      60      62      63
      61      60      62      64      61      60      62      65
      61      60      66      67      61      60      66      68
      62      60      66      67      62      60      66      68
      63      62      60      66      64      62      60      66
      65      62      60      66      66      68      70      71
      66      68      70      72      66      68      70      73
      67      66      68      69      67      66      68      70
      69      68      70      71      69      68      70      72
      69      68      70      73

      12 !NIMPHI: impropers
       5       1       7       6       7       5       9       8
      15       9      17      16      17      15      19      18
      25      19      27      26      27      25      29      28
      46      29      48      47      48      46      50      49
      56      50      58      57      58      56      60      59
      68      66      70      69      66      60      68      67

       7 !NDON: donors
       7       8      17      18      27      28      40      41
      48      49      58      59      68      69

       7 !NACC: acceptors
       6       5      16      15      26      25      40       0
      47      46      57      56      67      66

       0 !NNB

       0       0       0       0       0       0       0       0
       0       0       0       0       0       0       0       0
       0       0       0       0       0       0       0       0
       0       0       0       0       0       0       0       0
       0       0       0       0       0       0       0       0
       0       0       0       0       0       0       0       0
       0       0       0       0       0       0       0       0
       0       0       0       0       0       0       0       0
       0       0       0       0       0       0       0       0
       0

      24       0 !NGRP NST2
       0       1       0       4       1       0       6       1       0
      10       1       0      14       1       0      16       1       0
      20       1       0      24       1       0      26       1       0
      30       1       0      33       0       0      34       1       0
      36       1       0      38       1       0      41       1       0
      43       1       0      45       1       0      47       1       0
      51       1       0      55       1       0      57       1       0
      61       1       0      65       1       0      67       1       0

       0       0 !NUMLP NUMLPH

       5 !NCRTERM: cross-terms
       5       7       9      15       7       9      15      17
      15      17      19      25      17      19      25      27
      25      27      29      46      27      29      46      48
      46      48      50      56      48      50      56      58
      56      58      60      66      58      60      66      68
