* EXECUTING CHARMM SCRIPT FROM PYTHON
*  DATE:     6/12/25     17:12:43      CREATED BY USER: raheelx
*
   29
    1    1 URA  H5T    4.09481   2.39877   1.49398 PROA 1      0.00000
    2    1 URA  O5'    3.44674   1.69880   1.60187 PROA 1      0.00000
    3    1 URA  C5'    3.20885   1.17137   0.28312 PROA 1      0.00000
    4    1 URA  H5'    4.14290   0.69887  -0.08919 PROA 1      0.00000
    5    1 URA  H5''   2.73784   1.96102  -0.34052 PROA 1      0.00000
    6    1 URA  C4'    2.18831   0.05448   0.37958 PROA 1      0.00000
    7    1 URA  H4'    2.51449  -0.72241   1.10373 PROA 1      0.00000
    8    1 URA  O4'    0.92733   0.59768   0.86775 PROA 1      0.00000
    9    1 URA  C1'    0.06873  -0.08556   0.22066 PROA 1      0.00000
   10    1 URA  H1'   -0.58087  -0.43654   1.05081 PROA 1      0.00000
   11    1 URA  N1    -1.39696   0.15887   0.11612 PROA 1      0.00000
   12    1 URA  C6    -1.91900   1.04355  -0.80391 PROA 1      0.00000
   13    1 URA  H6    -1.18349   1.54012  -1.43680 PROA 1      0.00000
   14    1 URA  C2    -2.21009  -0.53719   0.97858 PROA 1      0.00000
   15    1 URA  O2    -1.78650  -1.32633   1.80402 PROA 1      0.00000
   16    1 URA  N3    -3.55125  -0.27675   0.84221 PROA 1      0.00000
   17    1 URA  H3    -4.18480  -0.78455   1.47597 PROA 1      0.00000
   18    1 URA  C4    -4.14303   0.59405  -0.05456 PROA 1      0.00000
   19    1 URA  O4    -5.36292   0.72570  -0.06213 PROA 1      0.00000
   20    1 URA  C5    -3.23087   1.28072  -0.91785 PROA 1      0.00000
   21    1 URA  H5    -3.60217   1.98842  -1.65907 PROA 1      0.00000
   22    1 URA  C2'    0.52890  -1.21498  -0.56366 PROA 1      0.00000
   23    1 URA  H2''  -0.10174  -1.35609  -1.46738 PROA 1      0.00000
   24    1 URA  O2'    0.71387  -2.35500   0.26457 PROA 1      0.00000
   25    1 URA  H2'    0.01586  -2.50767   0.90572 PROA 1      0.00000
   26    1 URA  C3'    1.81384  -0.62957  -0.93490 PROA 1      0.00000
   27    1 URA  H3'    1.66318   0.15986  -1.70198 PROA 1      0.00000
   28    1 URA  O3'    2.77567  -1.55072  -1.43105 PROA 1      0.00000
   29    1 URA  H3T    2.41236  -2.28891  -1.92570 PROA 1      0.00000
