PSF CMAP XPLOR

       2 !NTITLE
* EXECUTING CHARMM SCRIPT FROM PYTHON                                           
*  DATE:     6/12/25     17:12:43      CREATED BY USER: raheelx                 

      29 !NATOM
       1 PROA 1    URA  H5T  HN5    0.430000       1.00800           0
       2 PROA 1    URA  O5'  ON5   -0.660000       15.9994           0
       3 PROA 1    URA  C5'  CN8B   0.500000E-01   12.0110           0
       4 PROA 1    URA  H5'  HN8    0.900000E-01   1.00800           0
       5 PROA 1    URA  H5'' HN8    0.900000E-01   1.00800           0
       6 PROA 1    URA  C4'  CN7    0.160000       12.0110           0
       7 PROA 1    URA  H4'  HN7    0.900000E-01   1.00800           0
       8 PROA 1    URA  O4'  ON6B  -0.500000       15.9994           0
       9 PROA 1    URA  C1'  CN7B   0.160000       12.0110           0
      10 PROA 1    URA  H1'  HN7    0.900000E-01   1.00800           0
      11 PROA 1    URA  N1   NN2B  -0.340000       14.0070           0
      12 PROA 1    URA  C6   CN3    0.200000       12.0110           0
      13 PROA 1    URA  H6   HN3    0.140000       1.00800           0
      14 PROA 1    URA  C2   CN1T   0.550000       12.0110           0
      15 PROA 1    URA  O2   ON1   -0.450000       15.9994           0
      16 PROA 1    URA  N3   NN2U  -0.460000       14.0070           0
      17 PROA 1    URA  H3   HN2    0.360000       1.00800           0
      18 PROA 1    URA  C4   CN1    0.530000       12.0110           0
      19 PROA 1    URA  O4   ON1   -0.480000       15.9994           0
      20 PROA 1    URA  C5   CN3   -0.150000       12.0110           0
      21 PROA 1    URA  H5   HN3    0.100000       1.00800           0
      22 PROA 1    URA  C2'  CN7B   0.140000       12.0110           0
      23 PROA 1    URA  H2'' HN7    0.900000E-01   1.00800           0
      24 PROA 1    URA  O2'  ON5   -0.660000       15.9994           0
      25 PROA 1    URA  H2'  HN5    0.430000       1.00800           0
      26 PROA 1    URA  C3'  CN7    0.140000       12.0110           0
      27 PROA 1    URA  H3'  HN7    0.900000E-01   1.00800           0
      28 PROA 1    URA  O3'  ON5   -0.660000       15.9994           0
      29 PROA 1    URA  H3T  HN5    0.430000       1.00800           0

      30 !NBOND: bonds
       1       2       2       3       3       6       6       8
       6      26       8       9       9      11       9      22
      11      14      11      12      14      16      16      17
      16      18      18      20      22      26      26      28
      22      24      24      25       9      10      22      23
      26      27       6       7       3       4       3       5
      20      21      12      13      14      15      18      19
      20      12      28      29

      52 !NTHETA: angles
       1       2       3       2       3       4       2       3       5
       2       3       6       3       6       7       3       6       8
       3       6      26       4       3       5       4       3       6
       5       3       6       6       8       9       6      26      22
       6      26      27       6      26      28       7       6       8
       7       6      26       8       6      26       8       9      10
       8       9      11       8       9      22       9      11      12
       9      11      14       9      22      23       9      22      24
       9      22      26      10       9      11      10       9      22
      11       9      22      11      12      13      11      12      20
      11      14      15      11      14      16      12      11      14
      12      20      18      12      20      21      13      12      20
      14      16      17      14      16      18      15      14      16
      16      18      19      16      18      20      17      16      18
      18      20      21      19      18      20      22      24      25
      22      26      27      22      26      28      23      22      24
      23      22      26      24      22      26      26      28      29
      27      26      28

      81 !NPHI: dihedrals
       1       2       3       4       1       2       3       5
       1       2       3       6       2       3       6       7
       2       3       6       8       2       3       6      26
       3       6       8       9       3       6      26      22
       3       6      26      27       3       6      26      28
       4       3       6       7       4       3       6       8
       4       3       6      26       5       3       6       7
       5       3       6       8       5       3       6      26
       6       8       9      10       6       8       9      11
       6       8       9      22       6      26      22       9
       6      26      22      23       6      26      22      24
       6      26      28      29       7       6       8       9
       7       6      26      22       7       6      26      27
       7       6      26      28       8       6      26      22
       8       6      26      27       8       6      26      28
       8       9      11      12       8       9      11      14
       8       9      22      23       8       9      22      24
       8       9      22      26       9       8       6      26
       9      11      12      13       9      11      12      20
       9      11      14      15       9      11      14      16
       9      22      24      25       9      22      26      27
       9      22      26      28      10       9      11      12
      10       9      11      14      10       9      22      23
      10       9      22      24      10       9      22      26
      11       9      22      23      11       9      22      24
      11       9      22      26      11      12      20      18
      11      12      20      21      11      14      16      17
      11      14      16      18      12      11       9      22
      12      11      14      15      12      11      14      16
      12      20      18      16      12      20      18      19
      13      12      11      14      13      12      20      18
      13      12      20      21      14      11       9      22
      14      11      12      20      14      16      18      19
      14      16      18      20      15      14      16      17
      15      14      16      18      16      18      20      21
      17      16      18      19      17      16      18      20
      19      18      20      21      22      26      28      29
      23      22      24      25      23      22      26      27
      23      22      26      28      24      22      26      27
      24      22      26      28      25      24      22      26
      27      26      28      29

       2 !NIMPHI: impropers
      14      11      16      15      18      16      20      19

       4 !NDON: donors
       2       1      16      17      24      25      28      29

       6 !NACC: acceptors
      15      14      19      18      24       0      28       0
       8       0       2       0

       0 !NNB

       0       0       0       0       0       0       0       0
       0       0       0       0       0       0       0       0
       0       0       0       0       0       0       0       0
       0       0       0       0       0

       5       0 !NGRP NST2
       0       1       0       5       1       0      10       1       0
      21       1       0      25       1       0

       0       0 !NUMLP NUMLPH

       0 !NCRTERM: cross-terms

